This job is running on host node13
Current directory: /share/home/Liaoyt/APIs/tmpfile
Tue Jul 16 20:49:13 CST 2024
/tmp/93985.mgr
 Entering Gaussian System, Link 0=g16
 AtFile(1): amber14_mod.prm
            !
            ! Non-bonded interaction
            !
            NonBon 3 1 0 0 0.000 0.000 0.500 0.000 0.000 -1.000
            !
            ! Stretches
            !
            HrmStr1 OW HW  553.0  0.9572
            HrmStr1 HW HW  553.0  1.5136
            HrmStr1 C  C   310.0  1.525
            HrmStr1 C  CA  469.0  1.409
            HrmStr1 C  CB  447.0  1.419
            HrmStr1 C  CM  410.0  1.444
            HrmStr1 C  CS  410.0  1.444
            HrmStr1 C  CT  317.0  1.522
            HrmStr1 C  CX  317.0  1.522
            HrmStr1 C  N   490.0  1.335
            HrmStr1 C  N*  424.0  1.383
            HrmStr1 C  NA  418.0  1.388
            HrmStr1 C  NC  457.0  1.358
            HrmStr1 C  O   570.0  1.229
            HrmStr1 C  O2  656.0  1.250
            HrmStr1 C  OH  450.0  1.364
            HrmStr1 C  OS  450.0  1.323
            HrmStr1 C  H4  367.0  1.080
            HrmStr1 C  H5  367.0  1.080
            HrmStr1 CA CA  469.0  1.400
            HrmStr1 CA CB  469.0  1.404
            HrmStr1 CA CM  427.0  1.433
            HrmStr1 CA CS  427.0  1.433
            HrmStr1 CA CN  469.0  1.400
            HrmStr1 CA CT  317.0  1.510
            HrmStr1 CA HA  367.0  1.080
            HrmStr1 CA H4  367.0  1.080
            HrmStr1 CA N2  481.0  1.340
            HrmStr1 CA NA  427.0  1.381
            HrmStr1 CA NC  483.0  1.339
            HrmStr1 CA OH  450.0  1.364
            HrmStr1 CB CB  520.0  1.370
            HrmStr1 CB N*  436.0  1.374
            HrmStr1 CB NB  414.0  1.391
            HrmStr1 CB NC  461.0  1.354
            HrmStr1 CD HA  367.0  1.080
            HrmStr1 CD CD  469.0  1.400
            HrmStr1 CD CM  549.0  1.350
            HrmStr1 CD CS  549.0  1.350
            HrmStr1 CD CT  317.0  1.510
            HrmStr1 CK H5  367.0  1.080
            HrmStr1 CK N*  440.0  1.371
            HrmStr1 CK NB  529.0  1.304
            HrmStr1 CP H5  367.0  1.080
            HrmStr1 CP N*  440.0  1.371
            HrmStr1 CP NB  529.0  1.304
            HrmStr1 CM CM  549.0  1.350
            HrmStr1 CM CT  317.0  1.510
            HrmStr1 CM HA  367.0  1.080
            HrmStr1 CM H4  367.0  1.080
            HrmStr1 CM H5  367.0  1.080
            HrmStr1 CM N*  448.0  1.365
            HrmStr1 CM OS  480.0  1.240
            HrmStr1 CS CS  549.0  1.350
            HrmStr1 CS CT  317.0  1.510
            HrmStr1 CS HA  367.0  1.080
            HrmStr1 CS H4  367.0  1.080
            HrmStr1 CS H5  367.0  1.080
            HrmStr1 CS N*  448.0  1.365
            HrmStr1 CS OS  480.0  1.240
            HrmStr1 CQ H5  367.0  1.080
            HrmStr1 CQ NC  502.0  1.324
            HrmStr1 CT CT  310.0  1.526
            HrmStr1 CX CT  310.0  1.526
            HrmStr1 CT HC  340.0  1.090
            HrmStr1 CT H1  340.0  1.090
            HrmStr1 CX H1  340.0  1.090
            HrmStr1 CT H2  340.0  1.090
            HrmStr1 CT H3  340.0  1.090
            HrmStr1 CT HP  340.0  1.090
            HrmStr1 CX HP  340.0  1.090
            HrmStr1 CT N*  337.0  1.475
            HrmStr1 CT N2  337.0  1.463
            HrmStr1 CT OH  320.0  1.410
            HrmStr1 CT OS  320.0  1.410
            HrmStr1 C* HC  367.0  1.080
            HrmStr1 C* CB  388.0  1.459
            HrmStr1 C* CT  317.0  1.495
            HrmStr1 C* CW  546.0  1.352
            HrmStr1 CB CN  447.0  1.419
            HrmStr1 CC CT  317.0  1.504
            HrmStr1 CC CV  512.0  1.375
            HrmStr1 CC CW  518.0  1.371
            HrmStr1 CC NA  422.0  1.385
            HrmStr1 CC NB  410.0  1.394
            HrmStr1 CN NA  428.0  1.380
            HrmStr1 CR H5  367.0  1.080
            HrmStr1 CR NA  477.0  1.343
            HrmStr1 CR NB  488.0  1.335
            HrmStr1 CT N   337.0  1.449
            HrmStr1 CX N   337.0  1.449
            HrmStr1 CT N3  367.0  1.471
            HrmStr1 CX N3  367.0  1.471
            HrmStr1 CT NT  367.0  1.471
            HrmStr1 CT S   227.0  1.810
            HrmStr1 CT SH  237.0  1.810
            HrmStr1 CT CY  400.0  1.458
            HrmStr1 CT CZ  400.0  1.459
            HrmStr1 CV H4  367.0  1.080
            HrmStr1 CV NB  410.0  1.394
            HrmStr1 CW H4  367.0  1.080
            HrmStr1 CW NA  427.0  1.381
            HrmStr1 CY NY  600.0  1.150
            HrmStr1 CZ CZ  600.0  1.206
            HrmStr1 CZ HZ  400.0  1.056
            HrmStr1 OP P   525.0  1.480
            HrmStr1 O2 P   525.0  1.480
            HrmStr1 OH P   230.0  1.610
            HrmStr1 OS P   230.0  1.610
            HrmStr1 NA P   250.0  1.840
            HrmStr1 H  N2  434.0  1.010
            HrmStr1 H  N*  434.0  1.010
            HrmStr1 H  NA  434.0  1.010
            HrmStr1 H  N   434.0  1.010
            HrmStr1 H  N3  434.0  1.010
            HrmStr1 H  NT  434.0  1.010
            HrmStr1 HO OH  553.0  0.960
            HrmStr1 HO OS  553.0  0.960
            HrmStr1 HS SH  274.0  1.336
            HrmStr1 S  S   166.0  2.038
            HrmStr1 F  CT  367.0  1.380
            HrmStr1 Cl CT  232.0  1.766
            HrmStr1 Br CT  159.0  1.944
            HrmStr1 I  CT  148.0  2.166
            HrmStr1 F  CA  386.0  1.359
            HrmStr1 Cl CA  193.0  1.727
            HrmStr1 I  CA  171.0  2.075
            HrmStr1 Br CA  172.0  1.890
            HrmStr1 EP O   600.0  0.200
            HrmStr1 EP OH  600.0  0.200
            HrmStr1 EP OS  600.0  0.200
            HrmStr1 EP N3  600.0  0.200
            HrmStr1 EP NT  600.0  0.200
            HrmStr1 EP NB  600.0  0.200
            HrmStr1 EP NC  600.0  0.200
            HrmStr1 EP S   600.0  0.700
            HrmStr1 EP SH  600.0  0.700
            HrmStr1 CI H1  340.0  1.090
            HrmStr1 CI CT  310.0  1.526
            HrmStr1 OS CI  320.0  1.410
            HrmStr1 OH CI  320.0  1.410
            HrmStr1 C5 H5  367.0  1.080
            HrmStr1 C5 N*  440.0  1.371
            HrmStr1 C5 NB  529.0  1.304
            HrmStr1 C  C4  410.0  1.444
            HrmStr1 CA C4  427.0  1.433
            HrmStr1 C4 C4  549.0  1.350
            HrmStr1 C4 CT  317.0  1.510
            HrmStr1 C4 HA  367.0  1.080
            HrmStr1 C4 H4  367.0  1.080
            HrmStr1 C4 N*  448.0  1.365
            HrmStr1 C8 C8  310.0  1.5260
            HrmStr1 C8 CX  310.0  1.5260
            HrmStr1 C8 H1  340.0  1.0900
            HrmStr1 C8 HC  340.0  1.0900
            HrmStr1 C8 HP  340.0  1.0900
            HrmStr1 C8 N2  337.0  1.4630
            HrmStr1 C8 N3  367.0  1.4710
            HrmStr1 CO O2  656.0  1.2500
            !
            ! Angles
            !
            HrmBnd1 HW OW HW    100.   104.52
            HrmBnd1 HW HW OW      0.   127.74
            HrmBnd1 C  C  O     80.0   120.00
            HrmBnd1 C  C  OH    80.0   120.00
            HrmBnd1 CA C  CA    63.0   120.00
            HrmBnd1 CA C  OH    70.0   120.00
            HrmBnd1 CA C  OS    70.0   120.00
            HrmBnd1 CC NA P     76.7   125.10
            HrmBnd1 CR NA P     76.7   125.10
            HrmBnd1 NA P  OP    42.9   102.38
            HrmBnd1 CB C  NA    70.0   111.30
            HrmBnd1 CB C  O     80.0   128.80
            HrmBnd1 CM C  NA    70.0   114.10
            HrmBnd1 CM C  O     80.0   125.30
            HrmBnd1 CS C  NA    70.0   114.10
            HrmBnd1 CS C  O     80.0   125.30
            HrmBnd1 CT C  O     80.0   120.40
            HrmBnd1 CX C  O     80.0   120.40
            HrmBnd1 CT C  O2    70.0   117.00
            HrmBnd1 CX C  O2    70.0   117.00
            HrmBnd1 CT C  N     70.0   116.60
            HrmBnd1 CX C  N     70.0   116.60
            HrmBnd1 CT C  CT    63.0   117.00
            HrmBnd1 CT C  OS    80.0   115.00
            HrmBnd1 CT C  OH    80.0   110.00
            HrmBnd1 CX C  OH    80.0   110.00
            HrmBnd1 N* C  NA    70.0   115.40
            HrmBnd1 N* C  NC    70.0   118.60
            HrmBnd1 N* C  O     80.0   120.90
            HrmBnd1 NA C  O     80.0   120.60
            HrmBnd1 NC C  O     80.0   122.50
            HrmBnd1 N  C  O     80.0   122.90
            HrmBnd1 O  C  O     80.0   126.00
            HrmBnd1 O  C  OH    80.0   120.00
            HrmBnd1 O  C  OS    80.0   125.00
            HrmBnd1 O2 C  O2    80.0   126.00
            HrmBnd1 H4 C  C     50.0   120.00
            HrmBnd1 H4 C  CM    50.0   115.00
            HrmBnd1 H4 C  CS    50.0   115.00
            HrmBnd1 H4 C  CT    50.0   115.00
            HrmBnd1 H4 C  O     50.0   120.00
            HrmBnd1 H4 C  OH    50.0   120.00
            HrmBnd1 H5 C  N     50.0   120.00
            HrmBnd1 H5 C  O     50.0   119.00
            HrmBnd1 H5 C  OH    50.0   107.00
            HrmBnd1 H5 C  OS    50.0   107.00
            HrmBnd1 C  CA CA    63.0   120.00
            HrmBnd1 C  CA HA    50.0   120.00
            HrmBnd1 CA CA CA    63.0   120.00
            HrmBnd1 CA CA CB    63.0   120.00
            HrmBnd1 CA CA CT    70.0   120.00
            HrmBnd1 CA CA HA    50.0   120.00
            HrmBnd1 CA CA H4    50.0   120.00
            HrmBnd1 CA CA OH    70.0   120.00
            HrmBnd1 CA CA CN    63.0   120.00
            HrmBnd1 CB CA HA    50.0   120.00
            HrmBnd1 CB CA H4    50.0   120.00
            HrmBnd1 CB CA N2    70.0   123.50
            HrmBnd1 CB CA NC    70.0   117.30
            HrmBnd1 CM CA N2    70.0   120.10
            HrmBnd1 CM CA NC    70.0   121.50
            HrmBnd1 CS CA N2    70.0   120.10
            HrmBnd1 CS CA NC    70.0   121.50
            HrmBnd1 CN CA HA    50.0   120.00
            HrmBnd1 NA CA NC    70.0   123.30
            HrmBnd1 N2 CA NA    70.0   116.00
            HrmBnd1 N2 CA NC    70.0   119.30
            HrmBnd1 N2 CA N2    70.0   120.00
            HrmBnd1 F  CA CA    70.0   121.00
            HrmBnd1 Cl CA CA    70.0   118.80
            HrmBnd1 Br CA CA    70.0   118.80
            HrmBnd1 I  CA CA    70.0   118.80
            HrmBnd1 C  CB CB    63.0   119.20
            HrmBnd1 C  CB NB    70.0   130.00
            HrmBnd1 CA CB CB    63.0   117.30
            HrmBnd1 CA CB NB    70.0   132.40
            HrmBnd1 CB CB N*    70.0   106.20
            HrmBnd1 CB CB NB    70.0   110.40
            HrmBnd1 CB CB NC    70.0   127.70
            HrmBnd1 C* CB CA    63.0   134.90
            HrmBnd1 C* CB CN    63.0   108.80
            HrmBnd1 CA CB CN    63.0   116.20
            HrmBnd1 N* CB NC    70.0   126.20
            HrmBnd1 CD CD CM    63.0   120.00
            HrmBnd1 CD CD CS    63.0   120.00
            HrmBnd1 CD CD CT    70.0   120.00
            HrmBnd1 CM CD CT    70.0   120.00
            HrmBnd1 CS CD CT    70.0   120.00
            HrmBnd1 HA CD HA    35.0   119.00
            HrmBnd1 HA CD CD    50.0   120.00
            HrmBnd1 HA CD CM    50.0   120.00
            HrmBnd1 HA CD CS    50.0   120.00
            HrmBnd1 H5 CK N*    50.0   123.05
            HrmBnd1 H5 CK NB    50.0   123.05
            HrmBnd1 N* CK NB    70.0   113.90
            HrmBnd1 H5 CP N*    50.0   123.05
            HrmBnd1 H5 CP NB    50.0   123.05
            HrmBnd1 N* CP NB    70.0   113.90
            HrmBnd1 C  CM CM    63.0   120.70
            HrmBnd1 C  CM CT    70.0   119.70
            HrmBnd1 C  CM HA    50.0   119.70
            HrmBnd1 C  CM H4    50.0   119.70
            HrmBnd1 CA CM CM    63.0   117.00
            HrmBnd1 CA CM HA    50.0   123.30
            HrmBnd1 CA CM H4    50.0   123.30
            HrmBnd1 CM CM CT    70.0   119.70
            HrmBnd1 CM CM HA    50.0   119.70
            HrmBnd1 CM CM H4    50.0   119.70
            HrmBnd1 CM CM N*    70.0   121.20
            HrmBnd1 CM CM OS    80.0   125.00
            HrmBnd1 H4 CM N*    50.0   119.10
            HrmBnd1 H4 CM OS    50.0   113.00
            HrmBnd1 HA CM HA    35.0   120.00
            HrmBnd1 HA CM CD    50.0   120.00
            HrmBnd1 HA CM CT    50.0   120.00
            HrmBnd1 C  CS CS    63.0   120.70
            HrmBnd1 C  CS CT    70.0   119.70
            HrmBnd1 C  CS HA    50.0   119.70
            HrmBnd1 C  CS H4    50.0   119.70
            HrmBnd1 CA CS CS    63.0   117.00
            HrmBnd1 CA CS HA    50.0   123.30
            HrmBnd1 CA CS H4    50.0   123.30
            HrmBnd1 CM CS CT    70.0   119.70
            HrmBnd1 CS CS HA    50.0   119.70
            HrmBnd1 CS CS H4    50.0   119.70
            HrmBnd1 CS CS N*    70.0   121.20
            HrmBnd1 CS CS OS    80.0   125.00
            HrmBnd1 H4 CS N*    50.0   119.10
            HrmBnd1 H4 CS OS    50.0   113.00
            HrmBnd1 HA CS HA    35.0   120.00
            HrmBnd1 HA CS CD    50.0   120.00
            HrmBnd1 HA CS CT    50.0   120.00
            HrmBnd1 NC CQ NC    70.0   129.10
            HrmBnd1 H5 CQ NC    50.0   115.45
            HrmBnd1 H1 CT H1    35.0   109.50
            HrmBnd1 H1 CX H1    35.0   109.50
            HrmBnd1 H1 CT N*    50.0   109.50
            HrmBnd1 H1 CT OH    50.0   109.50
            HrmBnd1 H1 CT OS    50.0   109.50
            HrmBnd1 H1 CT CM    50.0   109.50
            HrmBnd1 H1 CT CS    50.0   109.50
            HrmBnd1 H1 CT CY    50.0   110.00
            HrmBnd1 H1 CT CZ    50.0   110.00
            HrmBnd1 H1 CT N     50.0   109.50
            HrmBnd1 H1 CX N     50.0   109.50
            HrmBnd1 H1 CT S     50.0   109.50
            HrmBnd1 H1 CT SH    50.0   109.50
            HrmBnd1 H1 CT N2    50.0   109.50
            HrmBnd1 H1 CT NT    50.0   109.50
            HrmBnd1 H2 CT H2    35.0   109.50
            HrmBnd1 H2 CT N*    50.0   109.50
            HrmBnd1 H2 CT OS    50.0   109.50
            HrmBnd1 HP CT HP    35.0   109.50
            HrmBnd1 HP CX HP    35.0   109.50
            HrmBnd1 HP CT N3    50.0   109.50
            HrmBnd1 HP CX N3    50.0   109.50
            HrmBnd1 HC CT HC    35.0   109.50
            HrmBnd1 HC CT CM    50.0   109.50
            HrmBnd1 HC CT CS    50.0   109.50
            HrmBnd1 HC CT CD    50.0   109.50
            HrmBnd1 HC CT CZ    50.0   110.00
            HrmBnd1 C  CT H1    50.0   109.50
            HrmBnd1 C  CX H1    50.0   109.50
            HrmBnd1 C  CT HP    50.0   109.50
            HrmBnd1 C  CX HP    50.0   109.50
            HrmBnd1 C  CT HC    50.0   109.50
            HrmBnd1 C  CT N     63.0   110.10
            HrmBnd1 C  CX N     63.0   110.10
            HrmBnd1 C  CT N3    80.0   111.20
            HrmBnd1 C  CX N3    80.0   111.20
            HrmBnd1 C  CT CT    63.0   111.10
            HrmBnd1 C  CT CX    63.0   111.10
            HrmBnd1 C  CX CT    63.0   111.10
            HrmBnd1 C  CT OS    60.0   109.50
            HrmBnd1 CA CT HC    50.0   109.50
            HrmBnd1 CC CT CT    63.0   113.10
            HrmBnd1 CC CT CX    63.0   113.10
            HrmBnd1 CC CT HC    50.0   109.50
            HrmBnd1 CM CT CT    63.0   111.00
            HrmBnd1 CM CT OS    50.0   109.50
            HrmBnd1 CS CT CT    63.0   111.00
            HrmBnd1 CS CT OS    50.0   109.50
            HrmBnd1 CT CT CT    40.0   109.50
            HrmBnd1 CT CT CX    40.0   109.50
            HrmBnd1 CT CT HC    50.0   109.50
            HrmBnd1 CX CT HC    50.0   109.50
            HrmBnd1 CT CT H1    50.0   109.50
            HrmBnd1 CT CX H1    50.0   109.50
            HrmBnd1 CX CT H1    50.0   109.50
            HrmBnd1 CT CT H2    50.0   109.50
            HrmBnd1 CT CT HP    50.0   109.50
            HrmBnd1 CT CX HP    50.0   109.50
            HrmBnd1 CT CT N*    50.0   109.50
            HrmBnd1 CT CT OH    50.0   109.50
            HrmBnd1 CX CT OH    50.0   109.50
            HrmBnd1 CT CT OS    50.0   109.50
            HrmBnd1 CT CT S     50.0   114.70
            HrmBnd1 CX CT S     50.0   114.70
            HrmBnd1 CT CT SH    50.0   108.60
            HrmBnd1 CX CT SH    50.0   108.60
            HrmBnd1 CT CT CA    63.0   114.00
            HrmBnd1 CX CT CA    63.0   114.00
            HrmBnd1 CT CT N2    80.0   111.20
            HrmBnd1 CT CT N     80.0   109.70
            HrmBnd1 CT CX N     80.0   109.70
            HrmBnd1 CT CT N3    80.0   111.20
            HrmBnd1 CT CX N3    80.0   111.20
            HrmBnd1 CT CT NT    80.0   111.20
            HrmBnd1 CT CT CY    63.0   110.00
            HrmBnd1 CT CT CZ    63.0   110.00
            HrmBnd1 C* CT CT    63.0   115.60
            HrmBnd1 C* CT CX    63.0   115.60
            HrmBnd1 C* CT HC    50.0   109.50
            HrmBnd1 OS CT OS   160.0   101.00
            HrmBnd1 OS CT CY    50.0   110.00
            HrmBnd1 OS CT CZ    50.0   110.00
            HrmBnd1 OS CT N*    50.0   109.50
            HrmBnd1 F  CT F     77.0   109.10
            HrmBnd1 F  CT H1    50.0   109.50
            HrmBnd1 F  CT CT    50.0   109.00
            HrmBnd1 F  CT H2    50.0   109.50
            HrmBnd1 Cl CT CT    50.0   108.50
            HrmBnd1 Cl CT H1    50.0   108.50
            HrmBnd1 Br CT CT    50.0   108.00
            HrmBnd1 Br CT H1    50.0   106.50
            HrmBnd1 I  CT CT    50.0   106.00
            HrmBnd1 CT CC NA    70.0   120.00
            HrmBnd1 CT CC CV    70.0   120.00
            HrmBnd1 CT CC NB    70.0   120.00
            HrmBnd1 CV CC NA    70.0   120.00
            HrmBnd1 CW CC NA    70.0   120.00
            HrmBnd1 CW CC NB    70.0   120.00
            HrmBnd1 CT CC CW    70.0   120.00
            HrmBnd1 H5 CR NA    50.0   120.00
            HrmBnd1 H5 CR NB    50.0   120.00
            HrmBnd1 NA CR NA    70.0   120.00
            HrmBnd1 NA CR NB    70.0   120.00
            HrmBnd1 CC CV H4    50.0   120.00
            HrmBnd1 CC CV NB    70.0   120.00
            HrmBnd1 H4 CV NB    50.0   120.00
            HrmBnd1 CC CW H4    50.0   120.00
            HrmBnd1 CC CW NA    70.0   120.00
            HrmBnd1 C* CW H4    50.0   120.00
            HrmBnd1 C* CW NA    70.0   108.70
            HrmBnd1 H4 CW NA    50.0   120.00
            HrmBnd1 CB C* CT    70.0   128.60
            HrmBnd1 CB C* CW    63.0   106.40
            HrmBnd1 CT C* CW    70.0   125.00
            HrmBnd1 CA CN CB    63.0   122.70
            HrmBnd1 CA CN NA    70.0   132.80
            HrmBnd1 CB CN NA    70.0   104.40
            HrmBnd1 CT CY NY    80.0   180.00
            HrmBnd1 CT CZ CZ    80.0   180.00
            HrmBnd1 CZ CZ HZ    50.0   180.00
            HrmBnd1 C  N  CT    50.0   121.90
            HrmBnd1 C  N  CX    50.0   121.90
            HrmBnd1 C  N  H     50.0   120.00
            HrmBnd1 CT N  H     50.0   118.04
            HrmBnd1 CX N  H     50.0   118.04
            HrmBnd1 CT N  CT    50.0   118.00
            HrmBnd1 CT N  CX    50.0   118.00
            HrmBnd1 H  N  H     35.0   120.00
            HrmBnd1 C  N* CM    70.0   121.60
            HrmBnd1 C  N* CS    70.0   121.60
            HrmBnd1 C  N* CT    70.0   117.60
            HrmBnd1 C  N* H     50.0   119.20
            HrmBnd1 CB N* CK    70.0   105.40
            HrmBnd1 CB N* CP    70.0   105.40
            HrmBnd1 CB N* CT    70.0   125.80
            HrmBnd1 CB N* H     50.0   125.80
            HrmBnd1 CK N* CT    70.0   128.80
            HrmBnd1 CK N* H     50.0   128.80
            HrmBnd1 CP N* CT    70.0   128.80
            HrmBnd1 CP N* H     50.0   128.80
            HrmBnd1 CM N* CT    70.0   121.20
            HrmBnd1 CM N* H     50.0   121.20
            HrmBnd1 CS N* CT    70.0   121.20
            HrmBnd1 CS N* H     50.0   121.20
            HrmBnd1 CA N2 H     50.0   120.00
            HrmBnd1 CA N2 CT    50.0   123.20
            HrmBnd1 CT N2 H     50.0   118.40
            HrmBnd1 H  N2 H     35.0   120.00
            HrmBnd1 CT N3 H     50.0   109.50
            HrmBnd1 CX N3 H     50.0   109.50
            HrmBnd1 CT N3 CT    50.0   109.50
            HrmBnd1 CT N3 CX    50.0   109.50
            HrmBnd1 H  N3 H     35.0   109.50
            HrmBnd1 CT NT H     50.0   109.50
            HrmBnd1 CT NT CT    50.0   109.50
            HrmBnd1 H  NT H     35.0   109.50
            HrmBnd1 C  NA C     70.0   126.40
            HrmBnd1 C  NA CA    70.0   125.20
            HrmBnd1 C  NA H     50.0   116.80
            HrmBnd1 CA NA H     50.0   118.00
            HrmBnd1 CC NA CR    70.0   120.00
            HrmBnd1 CC NA H     50.0   120.00
            HrmBnd1 CR NA CW    70.0   120.00
            HrmBnd1 CR NA H     50.0   120.00
            HrmBnd1 CW NA H     50.0   120.00
            HrmBnd1 CN NA CW    70.0   111.60
            HrmBnd1 CN NA H     50.0   123.10
            HrmBnd1 CB NB CK    70.0   103.80
            HrmBnd1 CB NB CP    70.0   103.80
            HrmBnd1 CC NB CR    70.0   117.00
            HrmBnd1 CR NB CV    70.0   117.00
            HrmBnd1 C  NC CA    70.0   120.50
            HrmBnd1 CA NC CB    70.0   112.20
            HrmBnd1 CA NC CQ    70.0   118.60
            HrmBnd1 CB NC CQ    70.0   111.00
            HrmBnd1 C  OH HO    50.0   113.00
            HrmBnd1 CA OH HO    50.0   113.00
            HrmBnd1 CT OH HO    55.0   108.50
            HrmBnd1 HO OH P     45.0   108.50
            HrmBnd1 C  OS CT    60.0   117.00
            HrmBnd1 CM OS CT    60.0   117.00
            HrmBnd1 CS OS CT    60.0   117.00
            HrmBnd1 CT OS CT    60.0   109.50
            HrmBnd1 CT OS P    100.0   120.50
            HrmBnd1 C  OS P    100.0   120.50
            HrmBnd1 P  OS P    100.0   120.50
            HrmBnd1 O2 P  OH    45.0   108.23
            HrmBnd1 O2 P  O2   140.0   119.90
            HrmBnd1 OP P  OP   140.0   119.90
            HrmBnd1 OP P  OS   100.0   108.23
            HrmBnd1 O2 P  OS   100.0   108.23
            HrmBnd1 OH P  OS    45.0   102.60
            HrmBnd1 OS P  OS    45.0   102.60
            HrmBnd1 CT S  CT    62.0    98.90
            HrmBnd1 CT S  S     68.0   103.70
            HrmBnd1 CT SH HS    43.0    96.00
            HrmBnd1 HS SH HS    35.0    92.07
            HrmBnd1 CB NB EP   150.0   126.00
            HrmBnd1 CC NB EP   150.0   126.00
            HrmBnd1 CK NB EP   150.0   126.00
            HrmBnd1 CP NB EP   150.0   126.00
            HrmBnd1 CR NB EP   150.0   126.00
            HrmBnd1 CV NB EP   150.0   126.00
            HrmBnd1 C  NC EP   150.0   120.00
            HrmBnd1 CA NC EP   150.0   120.00
            HrmBnd1 CB NC EP   150.0   120.00
            HrmBnd1 CQ NC EP   150.0   120.00
            HrmBnd1 CT N3 EP   150.0   109.50
            HrmBnd1 H  N3 EP   150.0   109.50
            HrmBnd1 CT NT EP   150.0   109.50
            HrmBnd1 H  NT EP   150.0   109.50
            HrmBnd1 C  O  EP   150.0   120.00
            HrmBnd1 EP O  EP   150.0   120.00
            HrmBnd1 C  OH EP   150.0   120.00
            HrmBnd1 CT OH EP   150.0   109.50
            HrmBnd1 HO OH EP   150.0   109.50
            HrmBnd1 EP OH EP   150.0   109.50
            HrmBnd1 C  OS EP   150.0   109.50
            HrmBnd1 CM OS EP   150.0   109.50
            HrmBnd1 CS OS EP   150.0   109.50
            HrmBnd1 CT OS EP   150.0   109.50
            HrmBnd1 EP OS EP   150.0   109.50
            HrmBnd1 CT S  EP   150.0    90.00
            HrmBnd1 CT SH EP   150.0    90.00
            HrmBnd1 P  OS EP   150.0   109.50
            HrmBnd1 EP S  EP   150.0   180.00
            HrmBnd1 EP SH EP   150.0   180.00
            HrmBnd1 HS SH EP   150.0    90.00
            HrmBnd1 H1 CI CT    50.0   109.50
            HrmBnd1 H1 CI H1    35.0   109.50
            HrmBnd1 CI CT H1    50.0   109.50
            HrmBnd1 CI CT OS    50.0   109.50
            HrmBnd1 CI CT CT    40.0   109.50
            HrmBnd1 OS CI H1    50.0   109.50
            HrmBnd1 OS CI CT    50.0   109.50
            HrmBnd1 P  OS CI   100.0   120.50
            HrmBnd1 OH CI H1    50.0   109.50
            HrmBnd1 OH CI CT    50.0   109.50
            HrmBnd1 HO OH CI    55.0   108.50
            HrmBnd1 H5 C5 N*    50.0   123.05
            HrmBnd1 H5 C5 NB    50.0   123.05
            HrmBnd1 N* C5 NB    70.0   113.90
            HrmBnd1 CB N* C5    70.0   105.40
            HrmBnd1 C5 N* CT    70.0   128.80
            HrmBnd1 CB NB C5    70.0   103.80
            HrmBnd1 C4 C  NA    70.0   114.10
            HrmBnd1 C4 C  O     80.0   125.30
            HrmBnd1 C4 CA N2    70.0   120.10
            HrmBnd1 C4 CA NC    70.0   121.50
            HrmBnd1 C  C4 C4    63.0   120.70
            HrmBnd1 C  C4 CT    70.0   119.70
            HrmBnd1 C  C4 HA    50.0   119.70
            HrmBnd1 C  C4 H4    50.0   119.70
            HrmBnd1 CA C4 C4    63.0   117.00
            HrmBnd1 CA C4 HA    50.0   123.30
            HrmBnd1 CA C4 H4    50.0   123.30
            HrmBnd1 C4 C4 CT    70.0   119.70
            HrmBnd1 C4 C4 HA    50.0   119.70
            HrmBnd1 C4 C4 H4    50.0   119.70
            HrmBnd1 C4 C4 N*    70.0   121.20
            HrmBnd1 H4 C4 N*    50.0   119.10
            HrmBnd1 H1 CT C4    50.0   109.50
            HrmBnd1 HC CT C4    50.0   109.50
            HrmBnd1 C  N* C4    70.0   121.60
            HrmBnd1 C4 N* CT    70.0   121.20
            HrmBnd1 EP S  S    150.0    96.70
            HrmBnd1 C8 C8 C8    40.0   109.50
            HrmBnd1 C8 C8 CX    40.0   109.50
            HrmBnd1 C8 C8 H1    50.0   109.50
            HrmBnd1 C8 C8 HC    50.0   109.50
            HrmBnd1 C8 C8 HP    50.0   109.50
            HrmBnd1 C8 C8 N2    80.0   111.20
            HrmBnd1 C8 C8 N3    80.0   111.20
            HrmBnd1 CX C8 HC    50.0   109.50
            HrmBnd1 H1 C8 H1    35.0   109.50
            HrmBnd1 H1 C8 N2    50.0   109.50
            HrmBnd1 HC C8 HC    35.0   109.50
            HrmBnd1 HP C8 HP    35.0   109.50
            HrmBnd1 HP C8 N3    50.0   109.50
            HrmBnd1 O2 CO O2    80.0   126.00
            HrmBnd1 C  CX C8    63.0   111.10
            HrmBnd1 C8 CX H1    50.0   109.50
            HrmBnd1 C8 CX N     80.0   109.70
            HrmBnd1 C8 CX N3    80.0   111.20
            HrmBnd1 HP CX C8    50.0   109.50
            HrmBnd1 C8 N2 CA    50.0   123.20
            HrmBnd1 C8 N2 H     50.0   118.40
            HrmBnd1 C8 N3 H     50.0   109.50
            !
            ! Torsions
            !
            AmbTrs *  C  C  *    0 180   0   0  0.000 14.500  0.000  0.000 4.0
            AmbTrs *  C  CA *    0 180   0   0  0.000 14.500  0.000  0.000 4.0
            AmbTrs *  C  CB *    0 180   0   0  0.000 12.000  0.000  0.000 4.0
            AmbTrs *  C  CM *    0 180   0   0  0.000  8.700  0.000  0.000 4.0
            AmbTrs *  C  CS *    0 180   0   0  0.000  8.700  0.000  0.000 4.0
            AmbTrs *  C  CT *    0   0   0   0  0.000  0.000  0.000  0.000 6.0
            AmbTrs *  C  CX *    0   0   0   0  0.000  0.000  0.000  0.000 6.0
            AmbTrs *  C  N  *    0 180   0   0  0.000 10.000  0.000  0.000 4.0
            AmbTrs *  C  N* *    0 180   0   0  0.000  5.800  0.000  0.000 4.0
            AmbTrs *  C  NA *    0 180   0   0  0.000  5.400  0.000  0.000 4.0
            AmbTrs *  C  NC *    0 180   0   0  0.000  8.000  0.000  0.000 2.0
            AmbTrs *  C  O  *    0 180   0   0  0.000 11.200  0.000  0.000 4.0
            AmbTrs *  C  OH *    0 180   0   0  0.000  4.600  0.000  0.000 2.0
            AmbTrs *  C  OS *    0 180   0   0  0.000  5.400  0.000  0.000 2.0
            AmbTrs *  CA CA *    0 180   0   0  0.000 14.500  0.000  0.000 4.0
            AmbTrs *  CA CB *    0 180   0   0  0.000 14.000  0.000  0.000 4.0
            AmbTrs *  CA CM *    0 180   0   0  0.000 10.200  0.000  0.000 4.0
            AmbTrs *  CA CS *    0 180   0   0  0.000 10.200  0.000  0.000 4.0
            AmbTrs *  CA CN *    0 180   0   0  0.000 14.500  0.000  0.000 4.0
            AmbTrs *  CA CT *    0   0   0   0  0.000  0.000  0.000  0.000 6.0
            AmbTrs *  CA N2 *    0 180   0   0  0.000  9.600  0.000  0.000 4.0
            AmbTrs *  CA NA *    0 180   0   0  0.000  6.000  0.000  0.000 4.0
            AmbTrs *  CA NC *    0 180   0   0  0.000  9.600  0.000  0.000 2.0
            AmbTrs *  CA OH *    0 180   0   0  0.000  1.800  0.000  0.000 2.0
            AmbTrs *  CB CB *    0 180   0   0  0.000 21.800  0.000  0.000 4.0
            AmbTrs *  CB CN *    0 180   0   0  0.000 12.000  0.000  0.000 4.0
            AmbTrs *  CB N* *    0 180   0   0  0.000  6.600  0.000  0.000 4.0
            AmbTrs *  CB NB *    0 180   0   0  0.000  5.100  0.000  0.000 2.0
            AmbTrs *  CB NC *    0 180   0   0  0.000  8.300  0.000  0.000 2.0
            AmbTrs *  CC CT *    0   0   0   0  0.000  0.000  0.000  0.000 6.0
            AmbTrs *  CC CV *    0 180   0   0  0.000 20.600  0.000  0.000 4.0
            AmbTrs *  CC CW *    0 180   0   0  0.000 21.500  0.000  0.000 4.0
            AmbTrs *  CC NA *    0 180   0   0  0.000  5.600  0.000  0.000 4.0
            AmbTrs *  CC NB *    0 180   0   0  0.000  4.800  0.000  0.000 2.0
            AmbTrs *  CD CD *    0 180   0   0  0.000  4.000  0.000  0.000 4.0
            AmbTrs *  CD CT *    0   0   0   0  0.000  0.000  0.000  0.000 6.0
            AmbTrs *  CD CM *    0 180   0   0  0.000 26.600  0.000  0.000 4.0
            AmbTrs *  CD CS *    0 180   0   0  0.000 26.600  0.000  0.000 4.0
            AmbTrs *  CK N* *    0 180   0   0  0.000  6.800  0.000  0.000 4.0
            AmbTrs *  CK NB *    0 180   0   0  0.000 20.000  0.000  0.000 2.0
            AmbTrs *  CP N* *    0 180   0   0  0.000  6.800  0.000  0.000 4.0
            AmbTrs *  CP NB *    0 180   0   0  0.000 20.000  0.000  0.000 2.0
            AmbTrs *  CM CM *    0 180   0   0  0.000 26.600  0.000  0.000 4.0
            AmbTrs *  CM CT *    0   0   0   0  0.000  0.000  0.000  0.000 6.0
            AmbTrs *  CM N* *    0 180   0   0  0.000  7.400  0.000  0.000 4.0
            AmbTrs *  CM OS *    0 180   0   0  0.000  2.100  0.000  0.000 2.0
            AmbTrs *  CS CS *    0 180   0   0  0.000 26.600  0.000  0.000 4.0
            AmbTrs *  CS CT *    0   0   0   0  0.000  0.000  0.000  0.000 6.0
            AmbTrs *  CS N* *    0 180   0   0  0.000  7.400  0.000  0.000 4.0
            AmbTrs *  CS OS *    0 180   0   0  0.000  2.100  0.000  0.000 2.0
            AmbTrs *  CN NA *    0 180   0   0  0.000  6.100  0.000  0.000 4.0
            AmbTrs *  CQ NC *    0 180   0   0  0.000 13.600  0.000  0.000 2.0
            AmbTrs *  CT CT *    0   0   0   0  0.000  0.000  1.400  0.000 9.0
            AmbTrs *  CT CX *    0   0   0   0  0.000  0.000  1.400  0.000 9.0
            AmbTrs *  CT CY *    0   0   0   0  0.000  0.000  0.000  0.000 3.0
            AmbTrs *  CT CZ *    0   0   0   0  0.000  0.000  0.000  0.000 3.0
            AmbTrs *  CT N  *    0   0   0   0  0.000  0.000  0.000  0.000 6.0
            AmbTrs *  CX N  *    0   0   0   0  0.000  0.000  0.000  0.000 6.0
            AmbTrs *  CT N* *    0   0   0   0  0.000  0.000  0.000  0.000 6.0
            AmbTrs *  CT N2 *    0   0   0   0  0.000  0.000  0.000  0.000 6.0
            AmbTrs *  CT NT *    0   0   0   0  0.000  0.000  1.800  0.000 6.0
            AmbTrs *  CT N3 *    0   0   0   0  0.000  0.000  1.400  0.000 9.0
            AmbTrs *  CX N3 *    0   0   0   0  0.000  0.000  1.400  0.000 9.0
            AmbTrs *  CT OH *    0   0   0   0  0.000  0.000  0.500  0.000 3.0
            AmbTrs *  CT OS *    0   0   0   0  0.000  0.000  1.150  0.000 3.0
            AmbTrs *  CT S  *    0   0   0   0  0.000  0.000  1.000  0.000 3.0
            AmbTrs *  CT SH *    0   0   0   0  0.000  0.000  0.750  0.000 3.0
            AmbTrs *  C* CB *    0 180   0   0  0.000  6.700  0.000  0.000 4.0
            AmbTrs *  C* CT *    0   0   0   0  0.000  0.000  0.000  0.000 6.0
            AmbTrs *  C* CW *    0 180   0   0  0.000 26.100  0.000  0.000 4.0
            AmbTrs *  CR NA *    0 180   0   0  0.000  9.300  0.000  0.000 4.0
            AmbTrs *  CR NB *    0 180   0   0  0.000 10.000  0.000  0.000 2.0
            AmbTrs *  CV NB *    0 180   0   0  0.000  4.800  0.000  0.000 2.0
            AmbTrs *  CW NA *    0 180   0   0  0.000  6.000  0.000  0.000 4.0
            AmbTrs *  OH P  *    0   0   0   0  0.000  0.000  0.750  0.000 3.0
            AmbTrs *  OS P  *    0   0   0   0  0.000  0.000  0.750  0.000 3.0
            AmbTrs *  CI OS *    0   0   0   0  0.000  0.000  1.150  0.000 3.0
            AmbTrs *  CI OH *    0   0   0   0  0.000  0.000  0.500  0.000 3.0
            AmbTrs *  CI CT *    0   0   0   0  0.000  0.000  1.400  0.000 9.0
            AmbTrs *  C5 N* *    0 180   0   0  0.000  6.800  0.000  0.000 4.0
            AmbTrs *  C5 NB *    0 180   0   0  0.000 20.000  0.000  0.000 2.0
            AmbTrs *  C  C4 *    0 180   0   0  0.000  8.700  0.000  0.000 4.0
            AmbTrs *  CA C4 *    0 180   0   0  0.000 10.200  0.000  0.000 4.0
            AmbTrs *  C4 C4 *    0 180   0   0  0.000 26.600  0.000  0.000 4.0
            AmbTrs *  C4 CT *    0   0   0   0  0.000  0.000  0.000  0.000 6.0
            AmbTrs *  C4 N* *    0 180   0   0  0.000  7.400  0.000  0.000 4.0
            AmbTrs CT OS CT CI   0 180   0   0  0.000  0.100  0.383  0.000 1.0
            AmbTrs H1 CI CT OS   0   0   0   0  0.250  0.000  0.000  0.000 1.0
            AmbTrs H1 CI CT OH   0   0   0   0  0.250  0.000  0.000  0.000 1.0
            AmbTrs H1 CT CI OS   0   0   0   0  0.250  0.000  0.000  0.000 1.0
            AmbTrs H1 CT CI OH   0   0   0   0  0.250  0.000  0.000  0.000 1.0
            AmbTrs CI CT CT CT 180 180   0   0  0.200  0.250  0.180  0.000 1.0
            AmbTrs OP P  OS CA 180   0 180   0  0.000  0.000  0.000  0.000 1.0
            AmbTrs CC NA P  OP   0   0   0   0  0.000  0.000  0.240  0.000 1.0
            AmbTrs CR NA P  OP   0   0   0   0  0.000  0.000  0.000  0.000 1.0
            AmbTrs OS P  OS CI  31 351 357   0  0.185  1.257  0.355  0.000 1.0
            AmbTrs OH P  OS CI  31 351 357   0  0.185  1.257  0.355  0.000 1.0
            AmbTrs CT CT CI OS 190 295 348   0  1.178  0.092  0.963  0.000 1.0
            AmbTrs CT CT CI OH 190 295 348   0  1.178  0.092  0.963  0.000 1.0
            AmbTrs HC CT C4 C4   0   0 180   0  1.150  0.000  0.380  0.000 1.0
            AmbTrs C4 C4 C  O    0 180   0   0  0.000  2.175  0.300  0.000 1.0
            AmbTrs OS CT N* C5  68  15 171  19  0.966  1.074  0.458  0.309 1.0
            AmbTrs OS CT N* CP  74   6 168   3  0.705  1.065  0.443  0.256 1.0
            AmbTrs OS CT N* C4 146  16 185  32  1.225  1.635  0.937  0.310 1.0
            AmbTrs OS CT N* CS 149  16 179  16  1.025  1.749  0.581  0.351 1.0
            AmbTrs C  N  CX C    0   0   0   0  0.000  0.270  0.420  0.000 1.0
            AmbTrs N  CX C  N  180 180 180   0  0.450  1.580  0.550  0.000 1.0
            AmbTrs CT CT N  C    0   0   0   0  2.000  2.000  0.400  0.000 1.0
            AmbTrs CT CT C  N    0   0   0   0  0.200  0.200  0.400  0.000 1.0
            AmbTrs CT CX C  N    0   0   0   0  0.200  0.200  0.400  0.000 1.0
            AmbTrs CX CT C  N    0   0   0   0  0.200  0.200  0.400  0.000 1.0
            AmbTrs H  N  C  O    0 180   0   0  2.000  2.500  0.000  0.000 1.0
            AmbTrs CT S  S  CT   0   0   0   0  0.000  3.500  0.600  0.000 1.0
            AmbTrs OH P  OS CT   0   0   0   0  0.000  1.200  0.250  0.000 1.0
            AmbTrs OS P  OS CT   0   0   0   0  0.000  1.200  0.250  0.000 1.0
            AmbTrs H1 CT C  O    0   0 180   0  0.800  0.000  0.080  0.000 1.0
            AmbTrs H1 CX C  O    0   0 180   0  0.800  0.000  0.080  0.000 1.0
            AmbTrs HC CT C  O    0   0 180   0  0.800  0.000  0.080  0.000 1.0
            AmbTrs HC CT CT HC   0   0   0   0  0.000  0.000  0.150  0.000 1.0
            AmbTrs HC CT CT CT   0   0   0   0  0.000  0.000  0.160  0.000 1.0
            AmbTrs HC CT CT CX   0   0   0   0  0.000  0.000  0.160  0.000 1.0
            AmbTrs HC CT CM CM   0   0 180   0  1.150  0.000  0.380  0.000 1.0
            AmbTrs HC CT CS CS   0   0 180   0  1.150  0.000  0.380  0.000 1.0
            AmbTrs HO OH CT CT   0   0   0   0  0.250  0.000  0.160  0.000 1.0
            AmbTrs HO OH CT CX   0   0   0   0  0.250  0.000  0.160  0.000 1.0
            AmbTrs HO OH C  O    0 180   0   0  1.900  2.300  0.000  0.000 1.0
            AmbTrs CM CM C  O    0 180   0   0  0.000  2.175  0.300  0.000 1.0
            AmbTrs CT CM CM CT 180 180   0   0  1.900  6.650  0.000  0.000 1.0
            AmbTrs CS CS C  O    0 180   0   0  0.000  2.175  0.300  0.000 1.0
            AmbTrs CT CS CS CT 180 180   0   0  1.900  6.650  0.000  0.000 1.0
            AmbTrs CT CT CT CT 180 180   0   0  0.200  0.250  0.180  0.000 1.0
            AmbTrs CX CT CT CT 180 180   0   0  0.200  0.250  0.180  0.000 1.0
            AmbTrs CT CT NT CT   0 180   0   0  0.000  0.480  0.300  0.000 1.0
            AmbTrs CT CT OS CT   0 180   0   0  0.000  0.100  0.383  0.000 1.0
            AmbTrs CT CT OS C  180   0   0   0  0.800  0.000  0.383  0.000 1.0
            AmbTrs CT OS CT OS 180 180   0   0  1.350  0.850  0.100  0.000 1.0
            AmbTrs CT OS CT N*   0   0   0   0  0.000  0.650  0.383  0.000 1.0
            AmbTrs CT CZ CZ HZ   0   0   0   0  0.000  0.000  0.000  0.000 1.0
            AmbTrs O  C  OS CT 180 180   0   0  1.400  2.700  0.000  0.000 1.0
            AmbTrs OS CT N* CK   0   0   0   0  2.500  0.000  0.000  0.000 1.0
            AmbTrs OS CT N* CM   0   0   0   0  2.500  0.000  0.000  0.000 1.0
            AmbTrs OS CT CT OS   0   0   0   0  0.000  1.175  0.144  0.000 1.0
            AmbTrs OS CT CT OH   0   0   0   0  0.000  1.175  0.144  0.000 1.0
            AmbTrs OH CT CT OH   0   0   0   0  0.000  1.175  0.144  0.000 1.0
            AmbTrs F  CT CT F  180   0   0   0  1.200  0.000  0.000  0.000 1.0
            AmbTrs Cl CT CT Cl 180   0   0   0  0.450  0.000  0.000  0.000 1.0
            AmbTrs Br CT CT Br 180   0   0   0  0.000  0.000  0.000  0.000 1.0
            AmbTrs H1 CT CT OS   0   0   0   0  0.250  0.000  0.000  0.000 1.0
            AmbTrs H1 CT CT OH   0   0   0   0  0.250  0.000  0.000  0.000 1.0
            AmbTrs H1 CX CT OH   0   0   0   0  0.250  0.000  0.000  0.000 1.0
            AmbTrs H1 CT CT F    0   0   0   0  0.190  0.000  0.000  0.000 1.0
            AmbTrs H1 CT CT Cl   0   0   0   0  0.250  0.000  0.000  0.000 1.0
            AmbTrs H1 CT CT Br   0   0   0   0  0.550  0.000  0.000  0.000 1.0
            AmbTrs HC CT CT OS   0   0   0   0  0.250  0.000  0.000  0.000 1.0
            AmbTrs HC CT CT OH   0   0   0   0  0.250  0.000  0.000  0.000 1.0
            AmbTrs HC CT CT F    0   0   0   0  0.190  0.000  0.000  0.000 1.0
            AmbTrs HC CT CT Cl   0   0   0   0  0.250  0.000  0.000  0.000 1.0
            AmbTrs HC CT CT Br   0   0   0   0  0.550  0.000  0.000  0.000 1.0
            AmbTrs H1 CT NT EP   0   0   0   0  0.000  0.000  0.000  0.000 1.0
            AmbTrs CT CT NT EP   0   0   0   0  0.000  0.000  0.000  0.000 1.0
            AmbTrs CT C  N  EP   0 180   0   0  0.000  0.000  0.000  0.000 1.0
            AmbTrs O  C  N  EP   0 180   0   0  0.000  0.000  0.000  0.000 1.0
            AmbTrs H1 CT OH EP   0   0   0   0  0.000  0.000  0.000  0.000 1.0
            AmbTrs CT CT OH EP   0   0   0   0  0.000  0.000  0.000  0.000 1.0
            AmbTrs H1 CT OS EP   0   0   0   0  0.000  0.000  0.000  0.000 1.0
            AmbTrs H2 CT OS EP   0   0   0   0  0.000  0.000  0.000  0.000 1.0
            AmbTrs CT CT OS EP   0   0   0   0  0.000  0.000  0.000  0.000 1.0
            AmbTrs CM CM OS EP   0 180   0   0  0.000  0.000  0.000  0.000 1.0
            AmbTrs HA CM OS EP   0 180   0   0  0.000  0.000  0.000  0.000 1.0
            AmbTrs H4 CM OS EP   0 180   0   0  0.000  0.000  0.000  0.000 1.0
            AmbTrs CS CS OS EP   0 180   0   0  0.000  0.000  0.000  0.000 1.0
            AmbTrs HA CS OS EP   0 180   0   0  0.000  0.000  0.000  0.000 1.0
            AmbTrs H4 CS OS EP   0 180   0   0  0.000  0.000  0.000  0.000 1.0
            AmbTrs N  CT CT OH   0   0   0   0  0.000  1.490  0.156  0.000 1.0
            AmbTrs EP S  S  CT   0   0   0   0  0.000  0.000  0.000  0.000 1.0
            AmbTrs EP S  S  EP   0   0   0   0  0.000  0.000  0.000  0.000 1.0
            AmbTrs C8 CX N  C    0   0   0   0  2.000  1.800  0.800  0.000 1.0
            AmbTrs CT CX N  C    0   0   0   0  2.000  1.800  0.800  0.000 1.0
            AmbTrs N  C  CX C8   0   0   0   0  0.200  0.200  0.400  0.000 1.0
            AmbTrs N  C  CX CT   0   0   0   0  0.200  0.200  0.400  0.000 1.0
            AmbTrs *  C8 C8 *    0   0   0   0  0.000  0.000  1.400  0.000 9.0
            AmbTrs C8 C8 C8 HC   0   0   0   0  0.000  0.000  0.160  0.000 1.0
            AmbTrs CX C8 C8 HC   0   0   0   0  0.000  0.000  0.160  0.000 1.0
            AmbTrs HC C8 C8 HC   0   0   0   0  0.000  0.000  0.150  0.000 1.0
            AmbTrs *  C8 CX *    0   0   0   0  0.000  0.000  1.400  0.000 9.0
            AmbTrs *  C8 N2 *    0   0   0   0  0.000  0.000  0.000  0.000 6.0
            AmbTrs *  C8 N3 *    0   0   0   0  0.000  0.000  1.400  0.000 9.0
            AmbTrs C  CX C8 C8   0   0   0   0  0.000  0.000  1.400  0.000 9.0
            AmbTrs N  CX C8 C8   0   0   0   0  0.000  0.000  1.400  0.000 9.0
            AmbTrs N3 CX C8 C8   0   0   0   0  0.000  0.000  1.400  0.000 9.0
            AmbTrs CX C8 C8 C8 180 180   0   0  0.200  0.250  0.180  0.000 1.0
            AmbTrs C8 C8 C8 N2   0   0   0   0  0.000  0.000  1.400  0.000 9.0
            AmbTrs C8 C8 N2 CA   0   0   0   0  0.000  0.000  0.000  0.000 1.0
            AmbTrs C8 C8 C8 C8 180 180   0   0  0.200  0.250  0.180  0.000 1.0
            AmbTrs C8 C8 C8 N3   0   0   0   0  0.000  0.000  1.400  0.000 9.0
            AmbTrs C8 N2 CA N2   0 180   0   0  0.000  2.400  0.000  0.000 1.0
            AmbTrs H  N2 CA N2   0 180   0   0  0.000  2.400  0.000  0.000 1.0
            AmbTrs C8 C8 N3 H    0   0   0   0  0.000  0.000  1.400  0.000 9.0
            AmbTrs C  CX CT CC 180 180   0   0  0.143  0.244  0.219  0.025 1.0
            AmbTrs N  CX CT CC 180 180   0   0  0.306  0.221  0.219  0.089 1.0
            AmbTrs N3 CX CT CC 180 180   0   0  0.306  0.221  0.219  0.089 1.0
            AmbTrs CX CT CC NA 180 180   0 180  0.160  0.392  0.686  0.037 1.0
            AmbTrs CX CT CC CV 180   0 180 180  0.674  0.750  0.122  0.010 1.0
            AmbTrs CX CT CC NB   0   0   0 180  0.690  0.204  0.740  0.047 1.0
            AmbTrs C  CX CT C* 180 180   0   0  0.017  0.353  0.234  0.074 1.0
            AmbTrs N  CX CT C*   0 180   0   0  0.079  0.313  0.234  0.031 1.0
            AmbTrs N3 CX CT C*   0 180   0   0  0.079  0.313  0.234  0.031 1.0
            AmbTrs CX CT C* CB   0   0   0 180  0.365  0.408  0.819  0.095 1.0
            AmbTrs CX CT C* CW   0   0   0   0  0.000  0.000  0.000  0.000 1.0
            AmbTrs C  CX CT CA   0 180   0 180  0.055  0.469  0.192  0.012 1.0
            AmbTrs N  CX CT CA 180 180   0 180  0.012  0.290  0.192  0.007 1.0
            AmbTrs N3 CX CT CA 180 180   0 180  0.012  0.290  0.192  0.007 1.0
            AmbTrs CX CT CA CA   0 180   0 180  0.000  0.069  0.000  0.048 1.0
            AmbTrs CA C  OH HO   0 180   0   0  0.000  0.883  0.000  0.065 1.0
            !
            ! Improper torsions
            !
            ImpTrs *  *  C  O   10.5  180.0 2.0
            ImpTrs *  O2 C  O2  10.5  180.0 2.0
            ImpTrs *  *  N  H    1.0  180.0 2.0
            ImpTrs *  *  N2 H    1.0  180.0 2.0
            ImpTrs *  *  NA H    1.0  180.0 2.0
            ImpTrs *  N2 CA N2  10.5  180.0 2.0
            ImpTrs *  CT N  CT   1.0  180.0 2.0
            ImpTrs *  CT N  CX   1.0  180.0 2.0
            ImpTrs *  *  CA HA   1.1  180.0 2.0
            ImpTrs *  *  CW H4   1.1  180.0 2.0
            ImpTrs *  *  CR H5   1.1  180.0 2.0
            ImpTrs *  *  CV H4   1.1  180.0 2.0
            ImpTrs *  *  CQ H5   1.1  180.0 2.0
            ImpTrs *  *  CK H5   1.1  180.0 2.0
            ImpTrs *  *  CP H5   1.1  180.0 2.0
            ImpTrs *  *  CM H4   1.1  180.0 2.0
            ImpTrs *  *  CM HA   1.1  180.0 2.0
            ImpTrs *  *  CS H4   1.1  180.0 2.0
            ImpTrs *  *  CS HA   1.1  180.0 2.0
            ImpTrs *  *  CA H4   1.1  180.0 2.0
            ImpTrs *  *  CA H5   1.1  180.0 2.0
            ImpTrs CB CK N* CT   1.0  180.0 2.0
            ImpTrs CB CP N* CT   1.0  180.0 2.0
            ImpTrs C  CM N* CT   1.0  180.0 2.0
            ImpTrs C  CS N* CT   1.0  180.0 2.0
            ImpTrs C  CS CM CT   1.1  180.0 2.0
            ImpTrs CT O  C  OH  10.5  180.0 2.0
            ImpTrs CT CV CC NA   1.1  180.0 2.0
            ImpTrs CT CW CC NB   1.1  180.0 2.0
            ImpTrs CT CW CC NA   1.1  180.0 2.0
            ImpTrs CB CT C* CW   1.1  180.0 2.0
            ImpTrs CA CA CA CT   1.1  180.0 2.0
            ImpTrs C  CM CM CT   1.1  180.0 2.0
            ImpTrs C  CS CS CT   1.1  180.0 2.0
            ImpTrs CM N2 CA NC   1.1  180.0 2.0
            ImpTrs CS N2 CA NC   1.1  180.0 2.0
            ImpTrs CB N2 CA NC   1.1  180.0 2.0
            ImpTrs N2 NA CA NC   1.1  180.0 2.0
            ImpTrs CA CA C  OH   1.1  180.0 2.0
            ImpTrs CA CA CA OH   1.1  180.0 2.0
            ImpTrs H5 O  C  OH   1.1  180.0 2.0
            ImpTrs H5 O  C  OS   1.1  180.0 2.0
            ImpTrs CM CT CM HA   1.1  180.0 2.0
            ImpTrs CS CT CS HA   1.1  180.0 2.0
            ImpTrs Br CA CA CA   1.1  180.0 2.0
            ImpTrs CM H4 C  O    1.1  180.0 2.0
            ImpTrs CS H4 C  O    1.1  180.0 2.0
            ImpTrs C  CT N  H    1.1  180.0 2.0
            ImpTrs C  CX N  H    1.1  180.0 2.0
            ImpTrs C  CT N  O    1.1  180.0 2.0
            ImpTrs *  *  C5 H5   1.1  180.0 2.0
            ImpTrs CB C5 N* CT   1.0  180.0 2.0
            ImpTrs *  *  C4 H4   1.1  180.0 2.0
            ImpTrs *  *  C4 HA   1.1  180.0 2.0
            ImpTrs C  C4 N* CT   1.0  180.0 2.0
            ImpTrs C  C4 C4 CT   1.1  180.0 2.0
            ImpTrs C4 N2 CA NC   1.1  180.0 2.0
            ImpTrs CA CA C  OS   1.1  180.0 2.0
            ImpTrs CR CC NA P    1.1  180.0 2.0
            ImpTrs *  O2 CO O2  10.5  180.0 2.0
            !
            ! Vanderwaals parameters
            !
            VDW H  0.6000  0.0157
            VDW HO 0.0000  0.0000
            VDW HS 0.6000  0.0157
            VDW HC 1.4870  0.0157
            VDW H1 1.3870  0.0157
            VDW H2 1.2870  0.0157
            VDW H3 1.1870  0.0157
            VDW HP 1.1000  0.0157
            VDW HA 1.4590  0.0150
            VDW H4 1.4090  0.0150
            VDW H5 1.3590  0.0150
            VDW HW 0.0000  0.0000
            VDW HZ 1.4590  0.0150
            VDW O  1.6612  0.2100
            VDW O2 1.6612  0.2100
            VDW OW 1.7683  0.1520
            VDW OH 1.7210  0.2104
            VDW OS 1.6837  0.1700
            VDW OP 1.8500  0.1700
            VDW C* 1.9080  0.0860
            VDW CB 1.9080  0.0860
            VDW CC 1.9080  0.0860
            VDW CD 1.9080  0.0860
            VDW CK 1.9080  0.0860
            VDW CM 1.9080  0.0860
            VDW CN 1.9080  0.0860
            VDW CQ 1.9080  0.0860
            VDW CR 1.9080  0.0860
            VDW CV 1.9080  0.0860
            VDW CW 1.9080  0.0860
            VDW CY 1.9080  0.0860
            VDW CZ 1.9080  0.0860
            VDW CP 1.9080  0.0860
            VDW CS 1.9080  0.0860
            VDW CI 1.9080  0.1094
            VDW C5 1.9080  0.0860
            VDW C4 1.9080  0.0860
            VDW CT 1.9080  0.1094
            VDW CX 1.9080  0.1094
            VDW C  1.9080  0.0860
            VDW N  1.8240  0.1700
            VDW NA 1.8240  0.1700
            VDW N2 1.8240  0.1700
            VDW N* 1.8240  0.1700
            VDW NC 1.8240  0.1700
            VDW NB 1.8240  0.1700
            VDW NT 1.8240  0.1700
            VDW NY 1.8240  0.1700
            VDW N3 1.8240  0.1700
            VDW S  2.0000  0.2500
            VDW SH 2.0000  0.2500
            VDW P  2.1000  0.2000
            VDW MG 0.7926  0.8947
            VDW C0 1.7131  0.459789
            VDW Zn 1.10    0.0125
            VDW F  1.75    0.061
            VDW Cl 1.948   0.265
            VDW Br 2.22    0.320
            VDW I  2.35    0.40
            VDW EP 0.00    0.0000
            VDW C8 1.9080  0.1094
            VDW CO 1.9080  0.0860
 Initial command:
 /share/apps/gaussian/g16/l1.exe "/tmp/93985.mgr/Gau-6695.inp" -scrdir="/tmp/93985.mgr/"
 Entering Link 1 = /share/apps/gaussian/g16/l1.exe PID=      6697.
  
 Copyright (c) 1988,1990,1992,1993,1995,1998,2003,2009,2016,
            Gaussian, Inc.  All Rights Reserved.
  
 This is part of the Gaussian(R) 16 program.  It is based on
 the Gaussian(R) 09 system (copyright 2009, Gaussian, Inc.),
 the Gaussian(R) 03 system (copyright 2003, Gaussian, Inc.),
 the Gaussian(R) 98 system (copyright 1998, Gaussian, Inc.),
 the Gaussian(R) 94 system (copyright 1995, Gaussian, Inc.),
 the Gaussian 92(TM) system (copyright 1992, Gaussian, Inc.),
 the Gaussian 90(TM) system (copyright 1990, Gaussian, Inc.),
 the Gaussian 88(TM) system (copyright 1988, Gaussian, Inc.),
 the Gaussian 86(TM) system (copyright 1986, Carnegie Mellon
 University), and the Gaussian 82(TM) system (copyright 1983,
 Carnegie Mellon University). Gaussian is a federally registered
 trademark of Gaussian, Inc.
  
 This software contains proprietary and confidential information,
 including trade secrets, belonging to Gaussian, Inc.
  
 This software is provided under written license and may be
 used, copied, transmitted, or stored only in accord with that
 written license.
  
 The following legend is applicable only to US Government
 contracts under FAR:
  
                    RESTRICTED RIGHTS LEGEND
  
 Use, reproduction and disclosure by the US Government is
 subject to restrictions as set forth in subparagraphs (a)
 and (c) of the Commercial Computer Software - Restricted
 Rights clause in FAR 52.227-19.
  
 Gaussian, Inc.
 340 Quinnipiac St., Bldg. 40, Wallingford CT 06492
  
  
 ---------------------------------------------------------------
 Warning -- This program may not be used in any manner that
 competes with the business of Gaussian, Inc. or will provide
 assistance to any competitor of Gaussian, Inc.  The licensee
 of this program is prohibited from giving any competitor of
 Gaussian, Inc. access to this program.  By using this program,
 the user acknowledges that Gaussian, Inc. is engaged in the
 business of creating and licensing software in the field of
 computational chemistry and represents and warrants to the
 licensee that it is not a competitor of Gaussian, Inc. and that
 it will not use this program in any manner prohibited above.
 ---------------------------------------------------------------
  

 Cite this work as:
 Gaussian 16, Revision A.03,
 M. J. Frisch, G. W. Trucks, H. B. Schlegel, G. E. Scuseria, 
 M. A. Robb, J. R. Cheeseman, G. Scalmani, V. Barone, 
 G. A. Petersson, H. Nakatsuji, X. Li, M. Caricato, A. V. Marenich, 
 J. Bloino, B. G. Janesko, R. Gomperts, B. Mennucci, H. P. Hratchian, 
 J. V. Ortiz, A. F. Izmaylov, J. L. Sonnenberg, D. Williams-Young, 
 F. Ding, F. Lipparini, F. Egidi, J. Goings, B. Peng, A. Petrone, 
 T. Henderson, D. Ranasinghe, V. G. Zakrzewski, J. Gao, N. Rega, 
 G. Zheng, W. Liang, M. Hada, M. Ehara, K. Toyota, R. Fukuda, 
 J. Hasegawa, M. Ishida, T. Nakajima, Y. Honda, O. Kitao, H. Nakai, 
 T. Vreven, K. Throssell, J. A. Montgomery, Jr., J. E. Peralta, 
 F. Ogliaro, M. J. Bearpark, J. J. Heyd, E. N. Brothers, K. N. Kudin, 
 V. N. Staroverov, T. A. Keith, R. Kobayashi, J. Normand, 
 K. Raghavachari, A. P. Rendell, J. C. Burant, S. S. Iyengar, 
 J. Tomasi, M. Cossi, J. M. Millam, M. Klene, C. Adamo, R. Cammi, 
 J. W. Ochterski, R. L. Martin, K. Morokuma, O. Farkas, 
 J. B. Foresman, and D. J. Fox, Gaussian, Inc., Wallingford CT, 2016.
 
 ******************************************
 Gaussian 16:  ES64L-G16RevA.03 25-Dec-2016
                16-Jul-2024 
 ******************************************
 %mem=8GB
 %nprocshared=4
 Will use up to    4 processors via shared memory.
 ------------------------------------------------------------------
 #oniom(external='Copy.py':amber=softonly) nosymm geom=connectivity
 ------------------------------------------------------------------
 1/38=1,52=2,56=2,57=2,61=3,64=303,172=1/1;
 2/12=2,15=1,17=6,18=5,40=1/2;
 1/38=1,52=2,53=3172,61=3,64=303/20;
 3/5=30,11=9,25=1,30=1,41=10300000,43=2/1;
 4/20=11,24=3/2;
 1/52=2,53=2032,61=3/20;
 3/11=9,25=1,30=1,41=9900000,43=2/1;
 4/20=17,24=3,113=2,114=2/2;
 6/7=2,8=2,9=2,10=2/1;
 1/52=2,53=1022,61=3,64=303/20;
 3/5=30,11=9,25=1,30=1,41=10300000,43=2/1;
 4/20=11,24=3/2;
 1/52=2,53=3014,61=3,64=303/20;
 99/5=1,9=1/99;
 -------------------
 Title Card Required
 -------------------
 Symbolic Z-matrix:
 Charge =  0 Multiplicity = 1 for low   level calculation on real  system.
 Charge = -1 Multiplicity = 1 for high  level calculation on model system.
 Charge = -1 Multiplicity = 1 for low   level calculation on model system.
 N-N3-0.031100        -1    2.088    -5.712     36.888   L 
 C-CT-0.025700        -1    1.434    -5.627     35.592   L 
 C-C-0.612300         -1    1.786    -4.211     35.102   L 
 O-O--0.571300        -1    2.262    -3.43      35.956   L 
 C-CT-0.188500        -1   -0.108    -5.786     35.753   L 
 C-CT--0.038700       -1   -0.698    -4.709     36.697   L 
 C-CT--0.372000       -1   -0.371    -7.213     36.209   L 
 C-CT--0.090800       -1   -2.216    -4.416     36.494   L 
 H-H-0.232900         -1    1.899    -6.601     37.313   L 
 H-HP-0.103100        -1    1.904    -6.246     34.996   L 
 H-HC-0.021300        -1   -0.521    -5.664     34.856   L 
 H-HC-0.020100        -1   -0.564    -5.004     37.64    L 
 H-HC-0.020100        -1   -0.201    -3.856     36.551   L 
 H-HC-0.094700        -1   -1.356    -7.371     36.259   L 
 H-HC-0.094700        -1    0.035    -7.852     35.558   L 
 H-HC-0.094700        -1    0.035    -7.356     37.11    L 
 H-HC-0.022600        -1   -2.716    -5.257     36.654   L 
 H-HC-0.022600        -1   -2.485    -3.718     37.145   L 
 H-HC-0.022600        -1   -2.347    -4.099     35.563   L 
 H-H-0.232900         -1    3.08     -5.609     36.781   L 
 H-H-0.232900         -1    1.751    -4.986     37.493   L 
 N-N--0.415700        -1    1.631    -3.874     33.806   L 
 C-CT--0.002400       -1    1.878    -2.517     33.346   L 
 C-C-0.597300         -1    0.538    -1.773     33.52    L 
 O-O--0.567900        -1   -0.506    -2.465     33.625   L 
 C-CT--0.034300       -1    2.352    -2.602     31.895   L 
 C-CA-0.011800        -1    2.995    -1.294     31.444   L 
 C-CA--0.125600       -1    3.909    -0.623     32.294   L 
 C-CA--0.125600       -1    2.603    -0.715     30.221   L 
 C-CA--0.170400       -1    4.401     0.634     31.923   L 
 C-CA--0.170400       -1    3.109     0.544     29.865   L 
 C-CA--0.107200       -1    4.003     1.22      30.71    L 
 H-H-0.271900         -1    1.33     -4.65      33.195   L 
 H-H1-0.097800        -1    2.51     -2.099     33.976   L 
 H-HC-0.029500        -1    3.03     -3.301     31.833   L 
 H-HC-0.029500        -1    1.575    -2.761     31.326   L 
 H-HA-0.133000        -1    4.194    -1.039     33.135   L 
 H-HA-0.133000        -1    1.982    -1.191     29.624   L 
 H-HA-0.143000        -1    5.04      1.115     32.53    L 
 H-HA-0.143000        -1    2.822     0.965     28.99    L 
 H-HA-0.129700        -1    4.357     2.113     30.453   L 
 N-N--0.254800        -1    0.443    -0.433     33.723   L 
 C-CT--0.026600       -1   -0.834     0.272     33.885   L 
 C-C-0.589600         -1   -1.675     0.222     32.607   L 
 O-O--0.574800        -1   -1.616     1.116     31.745   L 
 C-CT--0.007000       -1   -0.425     1.696     34.314   L 
 C-CT-0.018900        -1    0.992     1.876     33.797   L 
 C-CT-0.019200        -1    1.524     0.474     34.122   L 
 H-H1-0.064100        -1   -1.352    -0.103     34.666   L 
 H-HC-0.025300        -1   -1.035     2.378     33.906   L 
 H-HC-0.025300        -1   -0.448     1.787     35.31    L 
 H-HC-0.021300        -1    0.991     2.031     32.838   L 
 H-HC-0.021300        -1    1.462     2.551     34.313   L 
 H-H1-0.039100        -1    2.361     0.287     33.604   L 
 H-H1-0.039100        -1    1.721     0.391     35.102   L 
 N-N--0.347900        -1   -2.513    -0.828     32.621   L 
 C-CT--0.240000       -1   -3.396    -1.258     31.535   L 
 C-C-0.734100         -1   -2.556    -1.95      30.455   L 
 O-O--0.589400        -1   -1.584    -1.442     29.864   L 
 C-CT--0.009400       -1   -4.181    -0.095     30.825   L 
 C-CT-0.018700        -1   -5.702     0.081     31.123   L 
 C-CT--0.047900       -1   -5.988     0.34      32.636   L 
 C-CT--0.014300       -1   -5.368     1.622     33.257   L 
 N-N3--0.385400       -1   -5.205     1.511     34.712   L 
 H-H-0.274700         -1   -2.479    -1.357     33.552   L 
 H-H1-0.142600        -1   -4.058    -1.913     31.893   L 
 H-HC-0.036200        -1   -3.72      0.772     31.067   L 
 H-HC-0.036200        -1   -4.078    -0.227     29.827   L 
 H-HC-0.010300        -1   -6.041     0.859     30.601   L 
 H-HC-0.010300        -1   -6.179    -0.749     30.85    L 
 H-HC-0.062100        -1   -6.99      0.387     32.76    L 
 H-HC-0.062100        -1   -5.648    -0.455     33.158   L 
 H-HP-0.113500        -1   -4.477     1.773     32.819   L 
 H-HP-0.113500        -1   -5.972     2.392     33.034   L 
 H-H-0.340000         -1   -4.949     2.402     35.096   L 
 H-H-0.340000         -1   -6.065     1.209     35.13    L 
 H-H-0.340000         -1   -4.486     0.845     34.925   L 
 N-N--0.415700        -1   -2.946    -3.222     30.333   L 
 C-CT--0.003100       -1   -2.436    -4.069     29.271   L 
 C-C-0.597300         -1   -3.398    -3.725     28.146   L 
 O-O--0.567900        -1   -4.629    -3.826     28.34    L 
 C-CT--0.003600       -1   -2.578    -5.576     29.575   L 
 C-CT--0.064500       -1   -1.395    -6.256     30.28    L 
 C-C-0.695100         -1   -0.78     -5.428     31.401   L 
 O-O--0.608600        -1    0.45     -5.335     31.506   L 
 N-N--0.940700        -1   -1.585    -4.805     32.283   L 
 H-H-0.271900         -1   -3.627    -3.536     31.048   L 
 H-H1-0.085000        -1   -1.553    -3.751     29.018   L 
 H-HC-0.017100        -1   -3.397    -5.708     30.153   L 
 H-HC-0.017100        -1   -2.737    -6.063     28.702   L 
 H-HC-0.035200        -1   -1.715    -7.126     30.665   L 
 H-HC-0.035200        -1   -0.686    -6.444     29.595   L 
 H-H-0.425100         -1   -1.232    -4.271     33.031   L 
 H-H-0.425100         -1   -2.6      -4.91      32.143   L 
 N-N--0.415700        -1   -2.82     -3.25      27.029   L 
 C-CT--0.001400       -1   -3.602    -2.943     25.84    L 
 C-C-0.597300         -1   -4.352    -4.197     25.313   L 
 O-O--0.567900        -1   -3.866    -5.306     25.58    L 
 C-CT--0.015200       -1   -2.652    -2.375     24.771   L 
 C-CA--0.001100       -1   -1.975    -1.034     25.081   L 
 C-CA--0.190600       -1   -2.692     0.163     25.07    L 
 C-CA--0.190600       -1   -0.606    -1.024     25.371   L 
 C-CA--0.234100       -1   -2.047     1.369     25.334   L 
 C-CA--0.234100       -1    0.043     0.173     25.633   L 
 C-C-0.322600         -1   -0.684     1.36      25.618   L 
 O-OH--0.557900       -1   -0.003     2.531     25.872   L 
 H-H-0.271900         -1   -1.794    -3.128     27.095   L 
 H-H1-0.087600        -1   -4.298    -2.256     26.077   L 
 H-HC-0.029500        -1   -1.924    -3.052     24.607   L 
 H-HC-0.029500        -1   -3.174    -2.26      23.917   L 
 H-HA-0.169900        -1   -3.666     0.158     24.873   L 
 H-HA-0.169900        -1   -0.103    -1.878     25.389   L 
 H-HA-0.165600        -1   -2.553     2.226     25.321   L 
 H-HA-0.165600        -1    1.02      0.188     25.83    L 
 H-HO-0.399200        -1    0.962     2.314     26.032   L 
 N-N--0.254800        -1   -5.52     -4.159     24.623   L 
 C-CT--0.026600       -1   -6.194    -5.341     24.064   L 
 C-C-0.589600         -1   -5.393    -6.076     23.006   L 
 O-O--0.574800        -1   -4.731    -5.458     22.176   L 
 C-CT--0.007000       -1   -7.49     -4.823     23.522   L 
 C-CT-0.018900        -1   -7.114    -3.406     23.18    L 
 C-CT-0.019200        -1   -6.305    -2.961     24.377   L 
 H-H1-0.064100        -1   -6.466    -5.977     24.817   L 
 H-HC-0.025300        -1   -7.772    -5.312     22.706   L 
 H-HC-0.025300        -1   -8.209    -4.835     24.205   L 
 H-HC-0.021300        -1   -6.566    -3.381     22.35    L 
 H-HC-0.021300        -1   -7.929    -2.846     23.072   L 
 H-H1-0.039100        -1   -5.726    -2.19      24.15    L 
 H-H1-0.039100        -1   -6.893    -2.749     25.147   L 
 N-N--0.415700        -1   -5.477    -7.401     23.053   L 
 C-CT--0.059700       -1   -4.72     -8.295     22.187   L 
 C-C-0.597300         -1   -5.822    -9.048     21.493   L 
 O-O--0.567900        -1   -6.853    -9.382     22.102   L 
 C-CT-0.130300        -1   -3.854    -9.397     22.902   L 
 C-CT--0.043000       -1   -3.484    -9.002     24.354   L 
 C-CT--0.320400       -1   -2.622    -9.672     22.021   L 
 C-CT--0.066000       -1   -2.412    -7.902     24.635   L 
 H-H-0.271900         -1   -6.15     -7.757     23.783   L 
 H-H1-0.086900        -1   -4.294    -7.729     21.516   L 
 H-HC-0.018700        -1   -4.402    -10.228    22.939   L 
 H-HC-0.023600        -1   -4.343    -8.72      24.833   L 
 H-HC-0.023600        -1   -3.179    -9.85      24.841   L 
 H-HC-0.088200        -1   -2.099    -10.42     22.418   L 
 H-HC-0.088200        -1   -2.926    -9.919     21.106   L 
 H-HC-0.088200        -1   -2.061    -8.85      21.981   L 
 H-HC-0.018600        -1   -2.723    -7.057     24.22    L 
 H-HC-0.018600        -1   -2.325    -7.802     25.617   L 
 H-HC-0.018600        -1   -1.556    -8.198     24.233   L 
 N-N--0.415700        -1   -5.642    -9.276     20.201   L 
 C-CT--0.059700       -1   -6.602    -10.005    19.408   L 
 C-C-0.597300         -1   -5.682    -11.022    18.769   L 
 O-O--0.567900        -1   -4.62     -10.683    18.272   L 
 C-CT-0.130300        -1   -7.263    -8.997     18.428   L 
 C-CT--0.043000       -1   -8.063    -7.965     19.205   L 
 C-CT--0.320400       -1   -8.213    -9.719     17.474   L 
 C-CT--0.066000       -1   -7.977    -6.593     18.568   L 
 H-H-0.271900         -1   -4.753    -8.885     19.814   L 
 H-H1-0.086900        -1   -7.164    -10.494    20.03    L 
 H-HC-0.018700        -1   -6.534    -8.532     17.942   L 
 H-HC-0.023600        -1   -9.012    -8.248     19.232   L 
 H-HC-0.023600        -1   -7.701    -7.91      20.127   L 
 H-HC-0.088200        -1   -8.619    -9.057     16.848   L 
 H-HC-0.088200        -1   -7.704    -10.402    16.954   L 
 H-HC-0.088200        -1   -8.933    -10.167    18.      L 
 H-HC-0.018600        -1   -8.338    -6.637     17.638   L 
 H-HC-0.018600        -1   -8.514    -5.945     19.106   L 
 H-HC-0.018600        -1   -7.023    -6.299     18.544   L 
 N-N--0.415700        -1   -6.025    -12.293    18.888   L 
 C-CT-0.014300        -1   -5.242    -13.404    18.384   L 
 C-C-0.597300         -1   -5.825    -13.9      17.071   L 
 O-O--0.567900        -1   -7.022    -13.733    16.796   L 
 C-CT--0.204100       -1   -5.248    -14.549    19.377   L 
 C-C-0.713000         -1   -4.444    -14.28     20.639   L 
 O-O--0.593100        -1   -4.724    -13.396    21.461   L 
 N-N--0.919100        -1   -3.385    -15.042    20.849   L 
 H-H-0.271900         -1   -6.945    -12.435    19.396   L 
 H-H1-0.104800        -1   -4.321    -13.057    18.184   L 
 H-HC-0.079700        -1   -6.196    -14.738    19.645   L 
 H-HC-0.079700        -1   -4.867    -15.363    18.931   L 
 H-H-0.419600         -1   -3.145    -15.755    20.182   L 
 H-H-0.419600         -1   -2.822    -14.915    21.663   L 
 N-N--0.415700        -1   -4.977    -14.507    16.25    L 
 C-CT--0.002400       -1   -5.342    -15.061    14.962   L 
 C-C-0.597300         -1   -4.396    -16.188    14.625   L 
 O-O--0.567900        -1   -3.222    -16.087    14.985   L 
 C-CT--0.034300       -1   -5.211    -14.034    13.87    L 
 C-CA-0.011800        -1   -5.516    -14.587    12.484   L 
 C-CA--0.125600       -1   -6.803    -15.075    12.202   L 
 C-CA--0.125600       -1   -4.505    -14.605    11.52    L 
 C-CA--0.170400       -1   -7.07     -15.588    10.933   L 
 C-CA--0.170400       -1   -4.783    -15.117    10.267   L 
 C-CA--0.107200       -1   -6.056    -15.606    9.97     L 
 H-H-0.271900         -1   -3.988    -14.552    16.627   L 
 H-H1-0.097800        -1   -6.254    -15.463    15.062   L 
 H-HC-0.029500        -1   -5.853    -13.304    14.04    L 
 H-HC-0.029500        -1   -4.281    -13.704    13.853   L 
 H-HA-0.133000        -1   -7.504    -15.054    12.887   L 
 H-HA-0.133000        -1   -3.607    -14.255    11.737   L 
 H-HA-0.143000        -1   -7.982    -15.941    10.718   L 
 H-HA-0.143000        -1   -4.056    -15.139    9.558    L 
 H-HA-0.129700        -1   -6.25     -15.974    9.059    L 
 N-N--0.415700        -1   -4.839    -17.238    13.931   L 
 C-CT--0.038900       -1   -3.901    -18.237    13.485   L 
 C-C-0.597300         -1   -4.064    -18.703    12.028   L 
 O-O--0.567900        -1   -5.138    -18.928    11.463   L 
 C-CT-0.365400        -1   -3.96     -19.42     14.474   L 
 O-OH--0.676100       -1   -2.723    -20.044    14.2     L 
 C-CT--0.243800       -1   -5.139    -20.382    14.385   L 
 H-H-0.271900         -1   -5.849    -17.259    13.759   L 
 H-H1-0.100700        -1   -2.95     -17.862    13.581   L 
 H-H1-0.004300        -1   -3.949    -19.061    15.396   L 
 H-HO-0.410200        -1   -2.161    -19.642    13.523   L 
 H-HC-0.064200        -1   -5.993    -19.888    14.559   L 
 H-HC-0.064200        -1   -5.175    -20.79     13.47    L 
 H-HC-0.064200        -1   -5.035    -21.11     15.066   L 
 N-N--0.415700        -1   -2.884    -18.859    11.449   L 
 C-CT--0.038900       -1   -2.702    -19.326    10.101   L 
 C-C-0.597300         -1   -2.896    -20.83     10.039   L 
 O-O--0.567900        -1   -3.172    -21.397    8.983    L 
 C-CT-0.365400        -1   -1.299    -18.885    9.681    L 
 O-OH--0.676100       -1   -0.405    -19.042    10.805   L 
 C-CT--0.243800       -1   -1.304    -17.43     9.226    L 
 H-H-0.271900         -1   -2.071    -18.604    12.08    L 
 H-H1-0.100700        -1   -3.393    -18.895    9.508    L 
 H-H1-0.004300        -1   -0.967    -19.489    8.933    L 
 H-HO-0.410200        -1   -0.936    -19.404    11.585   L 
 H-HC-0.064200        -1   -1.541    -17.38     8.254    L 
 H-HC-0.064200        -1   -1.978    -16.912    9.757    L 
 H-HC-0.064200        -1   -0.396    -17.029    9.365    L 
 N-N--0.415700        -1   -2.805    -21.447    11.22    L 
 C-CT-0.033700        -1   -2.902    -22.857    11.427   L 
 C-C-0.597300         -1   -4.098    -23.546    10.837   L 
 O-O--0.567900        -1   -3.866    -24.494    10.081   L 
 C-CT--0.182500       -1   -2.872    -23.162    12.898   L 
 H-H-0.271900         -1   -2.647    -20.758    12.022   L 
 H-H1-0.082300        -1   -2.049    -23.305    11.042   L 
 H-HC-0.060300        -1   -3.351    -24.024    13.08    L 
 H-HC-0.060300        -1   -1.923    -23.245    13.213   L 
 H-HC-0.060300        -1   -3.321    -22.426    13.411   L 
 N-N--0.415700        -1   -5.347    -23.198    11.117   L 
 C-CT--0.025200       -1   -6.445    -23.863    10.426   L 
 C-C-0.597300         -1   -7.391    -22.797    9.899    L 
 O-O--0.567900        -1   -8.599    -22.913    10.077   L 
 H-H-0.271900         -1   -5.464    -22.465    11.82    L 
 H-H1-0.069800        -1   -6.088    -24.398    9.665    L 
 H-H1-0.069800        -1   -6.932    -24.456    11.061   L 
 N-N--0.415700        -1   -6.875    -21.742    9.258    L 
 C-CT-0.033700        -1   -7.67     -20.586    8.852    L 
 C-C-0.597300         -1   -8.678    -20.852    7.749    L 
 O-O--0.567900        -1   -8.468    -21.681    6.852    L 
 C-CT--0.182500       -1   -6.763    -19.447    8.373    L 
 H-H-0.271900         -1   -5.847    -21.819    9.073    L 
 H-H1-0.082300        -1   -8.174    -20.239    9.675    L 
 H-HC-0.060300        -1   -7.327    -18.707    8.012    L 
 H-HC-0.060300        -1   -6.221    -19.113    9.141    L 
 H-HC-0.060300        -1   -6.157    -19.788    7.657    L 
 N-N--0.415700        -1   -9.809    -20.157    7.874    L 
 C-CT--0.038900       -1   -10.903   -20.235    6.918    L 
 C-C-0.597300         -1   -11.441   -18.822    6.751    L 
 O-O--0.567900        -1   -11.174   -17.944    7.581    L 
 C-CT-0.365400        -1   -12.097   -21.133    7.42     L 
 O-OH--0.676100       -1   -12.523   -20.54     8.63     L 
 C-CT--0.243800       -1   -11.783   -22.572    7.698    L 
 H-H-0.271900         -1   -9.84     -19.546    8.727    L 
 H-H1-0.100700        -1   -10.546   -20.541    6.045    L 
 H-H1-0.004300        -1   -12.831   -21.073    6.74     L 
 H-HO-0.410200        -1   -11.993   -19.731    8.87     L 
 H-HC-0.064200        -1   -12.536   -23.163    7.386    L 
 H-HC-0.064200        -1   -10.942   -22.847    7.219    L 
 H-HC-0.064200        -1   -11.65    -22.718    8.685    L 
 N-N--0.415700        -1   -12.387   -18.659    5.832    L 
 C-CT--0.087500       -1   -13.017   -17.381    5.62     L 
 C-C-0.597300         -1   -13.725   -16.971    6.9      L 
 O-O--0.567900        -1   -13.642   -15.808    7.287    L 
 C-CT-0.298500        -1   -13.979   -17.518    4.413    L 
 C-CT--0.319200       -1   -14.469   -16.158    4.023    L 
 C-CT--0.319200       -1   -13.266   -18.019    3.172    L 
 H-H-0.271900         -1   -12.622   -19.519    5.296    L 
 H-H1-0.096900        -1   -12.308   -16.701    5.43     L 
 H-HC--0.029700       -1   -14.759   -18.046    4.72     L 
 H-HC-0.079100        -1   -14.432   -16.05     3.025    L 
 H-HC-0.079100        -1   -15.418   -16.031    4.327    L 
 H-HC-0.079100        -1   -13.897   -15.449    4.446    L 
 H-HC-0.079100        -1   -12.643   -18.761    3.423    L 
 H-HC-0.079100        -1   -13.94    -18.356    2.514    L 
 H-HC-0.079100        -1   -12.745   -17.269    2.762    L 
 N-N--0.415700        -1   -14.314   -17.907    7.651    L 
 C-CT--0.003100       -1   -15.025   -17.616    8.902    L 
 C-C-0.597300         -1   -14.071   -17.139    9.977    L 
 O-O--0.567900        -1   -14.349   -16.134    10.623   L 
 C-CT--0.003600       -1   -15.784   -18.887    9.366    L 
 C-CT--0.064500       -1   -16.478   -19.005    10.764   L 
 C-C-0.695100         -1   -15.815   -19.986    11.762   L 
 O-O--0.608600        -1   -14.739   -19.712    12.315   L 
 N-N--0.940700        -1   -16.384   -21.153    12.092   L 
 H-H-0.271900         -1   -14.224   -18.879    7.266    L 
 H-H1-0.085000        -1   -15.682   -16.875    8.714    L 
 H-HC-0.017100        -1   -16.514   -19.098    8.66     L 
 H-HC-0.017100        -1   -15.131   -19.691    9.296    L 
 H-HC-0.035200        -1   -16.488   -18.091    11.181   L 
 H-HC-0.035200        -1   -17.426   -19.301    10.613   L 
 H-H-0.425100         -1   -15.987   -21.786    12.698   L 
 H-H-0.425100         -1   -17.307   -21.353    11.65    L 
 N-N--0.415700        -1   -12.905   -17.753    10.191   L 
 C-CT--0.024900       -1   -12.022   -17.263    11.218   L 
 C-C-0.597300         -1   -11.29    -15.984    10.809   L 
 O-O--0.567900        -1   -10.906   -15.178    11.664   L 
 C-CT-0.211700        -1   -11.085   -18.433    11.598   L 
 O-OH--0.654600       -1   -10.268   -18.958    10.566   L 
 H-H-0.271900         -1   -12.716   -18.56     9.585    L 
 H-H1-0.084300        -1   -12.575   -17.045    12.041   L 
 H-H1-0.035200        -1   -10.486   -18.12     12.359   L 
 H-H1-0.035200        -1   -11.66    -19.186    11.971   L 
 H-HO-0.427500        -1   -10.497   -18.401    9.732    L 
 N-N--0.415700        -1   -11.14    -15.706    9.511    L 
 C-CT--0.001400       -1   -10.492   -14.485    9.08     L 
 C-C-0.597300         -1   -11.472   -13.321    9.204    L 
 O-O--0.567900        -1   -11.07    -12.214    9.549    L 
 C-CT--0.015200       -1   -9.986    -14.669    7.628    L 
 C-CA--0.001100       -1   -9.337    -13.393    7.097    L 
 C-CA--0.190600       -1   -8.022    -13.05     7.429    L 
 C-CA--0.190600       -1   -10.101   -12.528    6.309    L 
 C-CA--0.234100       -1   -7.499    -11.837    6.975    L 
 C-CA--0.234100       -1   -9.58     -11.318    5.865    L 
 C-C-0.322600         -1   -8.285    -10.981    6.201    L 
 O-OH--0.557900       -1   -7.814    -9.77      5.777    L 
 H-H-0.271900         -1   -11.518   -16.423    8.868    L 
 H-H1-0.087600        -1   -9.716    -14.301    9.686    L 
 H-HC-0.029500        -1   -9.312    -15.384    7.626    L 
 H-HC-0.029500        -1   -10.758   -14.883    7.058    L 
 H-HA-0.169900        -1   -7.469    -13.655    7.977    L 
 H-HA-0.169900        -1   -11.031   -12.784    6.062    L 
 H-HA-0.165600        -1   -6.558    -11.581    7.204    L 
 H-HA-0.165600        -1   -10.137   -10.704    5.312    L 
 H-HO-0.399200        -1   -8.532    -9.303     5.257    L 
 N-N--0.415700        -1   -12.767   -13.51     8.931    L 
 C-CT--0.038900       -1   -13.768   -12.462    9.056    L 
 C-C-0.597300         -1   -13.855   -12.122    10.544   L 
 O-O--0.567900        -1   -13.689   -10.952    10.908   L 
 C-CT-0.365400        -1   -15.157   -12.942    8.557    L 
 O-OH--0.676100       -1   -15.067   -13.473    7.242    L 
 C-CT--0.243800       -1   -16.122   -11.774    8.563    L 
 H-H-0.271900         -1   -12.995   -14.484    8.618    L 
 H-H1-0.100700        -1   -13.456   -11.658    8.571    L 
 H-H1-0.004300        -1   -15.486   -13.682    9.186    L 
 H-HO-0.410200        -1   -14.086   -13.403    6.949    L 
 H-HC-0.064200        -1   -15.62    -10.915    8.696    L 
 H-HC-0.064200        -1   -16.615   -11.732    7.69     L 
 H-HC-0.064200        -1   -16.787   -11.882    9.307    L 
 N-N--0.415700        -1   -14.041   -13.13     11.404   L 
 C-CT-0.014300        -1   -14.076   -12.939    12.849   L 
 C-C-0.597300         -1   -12.957   -12.051    13.384   L 
 O-O--0.567900        -1   -13.214   -11.008    14.      L 
 C-CT--0.204100       -1   -14.006   -14.281    13.578   L 
 C-C-0.713000         -1   -15.295   -15.076    13.496   L 
 O-O--0.593100        -1   -16.368   -14.578    13.13    L 
 N-N--0.919100        -1   -15.206   -16.366    13.803   L 
 H-H-0.271900         -1   -14.158   -14.063    10.947   L 
 H-H1-0.104800        -1   -14.953   -12.471    13.067   L 
 H-HC-0.079700        -1   -13.272   -14.823    13.171   L 
 H-HC-0.079700        -1   -13.801   -14.106    14.54    L 
 H-H-0.419600         -1   -14.328   -16.759    14.075   L 
 H-H-0.419600         -1   -16.02    -16.947    13.763   L 
 N-N--0.415700        -1   -11.725   -12.426    13.011   L 
 C-CT--0.002400       -1   -10.534   -11.71     13.382   L 
 C-C-0.597300         -1   -10.627   -10.283    12.871   L 
 O-O--0.567900        -1   -10.416   -9.383     13.675   L 
 C-CT--0.034300       -1   -9.313    -12.474    12.807   L 
 C-CA-0.011800        -1   -8.005    -11.684    12.844   L 
 C-CA--0.125600       -1   -7.412    -11.342    14.068   L 
 C-CA--0.125600       -1   -7.431    -11.238    11.647   L 
 C-CA--0.170400       -1   -6.259    -10.556    14.096   L 
 C-CA--0.170400       -1   -6.28     -10.456    11.679   L 
 C-CA--0.107200       -1   -5.701    -10.116    12.902   L 
 H-H-0.271900         -1   -11.718   -13.297    12.42    L 
 H-H1-0.097800        -1   -10.514   -11.656    14.383   L 
 H-HC-0.029500        -1   -9.187    -13.288    13.348   L 
 H-HC-0.029500        -1   -9.509    -12.686    11.865   L 
 H-HA-0.133000        -1   -7.811    -11.659    14.916   L 
 H-HA-0.133000        -1   -7.846    -11.481    10.78    L 
 H-HA-0.143000        -1   -5.844    -10.315    14.976   L 
 H-HA-0.143000        -1   -5.867    -10.135    10.813   L 
 H-HA-0.129700        -1   -4.874    -9.549     12.921   L 
 N-N--0.415700        -1   -11.      -9.99      11.62    L 
 C-CT--0.059700       -1   -11.051   -8.61      11.152   L 
 C-C-0.597300         -1   -12.209   -7.845     11.795   L 
 O-O--0.567900        -1   -12.055   -6.646     12.052   L 
 C-CT-0.130300        -1   -11.147   -8.596     9.596    L 
 C-CT--0.043000       -1   -9.825    -9.041     8.958    L 
 C-CT--0.320400       -1   -11.511   -7.189     9.137    L 
 C-CT--0.066000       -1   -8.641    -8.077     9.139    L 
 H-H-0.271900         -1   -11.241   -10.807    11.035   L 
 H-H1-0.086900        -1   -10.206   -8.17      11.473   L 
 H-HC-0.018700        -1   -11.853   -9.245     9.334    L 
 H-HC-0.023600        -1   -9.568    -9.931     9.344    L 
 H-HC-0.023600        -1   -9.976    -9.166     7.972    L 
 H-HC-0.088200        -1   -11.609   -7.178     8.144    L 
 H-HC-0.088200        -1   -12.372   -6.914     9.56     L 
 H-HC-0.088200        -1   -10.79    -6.554     9.407    L 
 H-HC-0.018600        -1   -8.466    -7.965     10.112   L 
 H-HC-0.018600        -1   -7.843    -8.464     8.688    L 
 H-HC-0.018600        -1   -8.877    -7.202     8.729    L 
 N-N--0.347900        -1   -13.354   -8.462     12.112   L 
 C-CT--0.263700       -1   -14.447   -7.766     12.78    L 
 C-C-0.734100         -1   -13.974   -7.295     14.164   L 
 O-O--0.589400        -1   -14.156   -6.125     14.538   L 
 C-CT--0.000700       -1   -15.629   -8.67      12.988   L 
 C-CT-0.039000        -1   -16.496   -9.131     11.831   L 
 C-CT-0.048600        -1   -17.553   -9.981     12.521   L 
 N-N2--0.529500       -1   -18.469   -10.717    11.664   L 
 C-CA-0.807600        -1   -19.064   -11.862    12.11    L 
 N-N2--0.862700       -1   -18.833   -12.362    13.352   L 
 N-N2--0.862700       -1   -19.917   -12.54     11.32    L 
 H-H-0.274700         -1   -13.391   -9.465     11.842   L 
 H-H1-0.156000        -1   -14.702   -6.963     12.244   L 
 H-HC-0.032700        -1   -15.297   -9.522     13.47    L 
 H-HC-0.032700        -1   -16.259   -8.218     13.671   L 
 H-HC-0.028500        -1   -16.929   -8.375     11.422   L 
 H-HC-0.028500        -1   -15.986   -9.696     11.242   L 
 H-H1-0.068700        -1   -17.068   -10.639    13.128   L 
 H-H1-0.068700        -1   -18.091   -9.365     13.128   L 
 H-H-0.345600         -1   -18.67    -10.404    10.763   L 
 H-H-0.447800         -1   -18.22    -11.853    13.953   L 
 H-H-0.447800         -1   -19.266   -13.2      13.632   L 
 H-H-0.447800         -1   -20.114   -12.17     10.41    L 
 H-H-0.447800         -1   -20.332   -13.376    11.637   L 
 N-N--0.415700        -1   -13.313   -8.215     14.897   L 
 C-CT-0.033700        -1   -12.785   -7.956     16.224   L 
 C-C-0.597300         -1   -11.829   -6.788     16.206   L 
 O-O--0.567900        -1   -12.033   -5.836     16.96    L 
 C-CT--0.182500       -1   -12.028   -9.157     16.765   L 
 H-H-0.271900         -1   -13.218   -9.141     14.41    L 
 H-H1-0.082300        -1   -13.553   -7.739     16.842   L 
 H-HC-0.060300        -1   -12.334   -9.355     17.696   L 
 H-HC-0.060300        -1   -12.201   -9.952     16.184   L 
 H-HC-0.060300        -1   -11.048   -8.96      16.773   L 
 N-N--0.415700        -1   -10.848   -6.828     15.301   L 
 C-CT--0.087500       -1   -9.869    -5.76      15.14    L 
 C-C-0.597300         -1   -10.537   -4.423     14.872   L 
 O-O--0.567900        -1   -10.203   -3.423     15.52    L 
 C-CT-0.298500        -1   -8.876    -6.148     13.988   L 
 C-CT--0.319200       -1   -8.178    -4.966     13.302   L 
 C-CT--0.319200       -1   -7.788    -6.994     14.65    L 
 H-H-0.271900         -1   -10.845   -7.697     14.716   L 
 H-H1-0.096900        -1   -9.347    -5.682     16.001   L 
 H-HC--0.029700       -1   -9.418    -6.62      13.279   L 
 H-HC-0.079100        -1   -7.282    -5.26      12.974   L 
 H-HC-0.079100        -1   -8.735    -4.658     12.533   L 
 H-HC-0.079100        -1   -8.07     -4.223     13.959   L 
 H-HC-0.079100        -1   -7.842    -7.928     14.3     L 
[...]
   4147          1    20001035      -25.026000   16.489000   17.394000
   4148          1    20001035      -24.783000   14.964000   17.925000
   4149          1    20001031      -22.699000   16.420000   18.644000
   4150          7    20001014      -25.178000   14.686000   14.955000
   4151          6    20001001      -25.773000   13.684000   14.025000
   4152          6    20001002      -25.959000   12.163000   14.452000
   4153          8    20001024      -26.706000   11.355000   13.842000
   4154          6    20001001      -24.949000   13.838000   12.691000
   4155          8    20001022      -24.967000   15.175000   12.135000
   4156          1    20001029      -25.678000   15.581000   15.200000
   4157          1    20001035      -26.721000   14.027000   13.766000
   4158          1    20001035      -24.001000   13.584000   12.882000
   4159          1    20001035      -25.333000   13.206000   12.017000
   4160          1    20001031      -25.535000   15.732000   12.767000
   4161          7    20001014      -25.297000   11.743000   15.546000
   4162          6    20001001      -25.444000   10.447000   16.194000
   4163          6    20001002      -26.379000   10.663000   17.402000
   4164          8    20001024      -26.359000   11.734000   18.068000
   4165          6    20001001      -24.041000    9.891000   16.666000
   4166          6    20001001      -22.939000   10.825000   17.314000
   4167          6    20001002      -21.747000   11.297000   16.420000
   4168          8    20001024      -21.234000   10.591000   15.537000
   4169          7    20001014      -21.163000   12.479000   16.626000
   4170          1    20001029      -24.620000   12.483000   15.915000
   4171          1    20001035      -25.903000    9.833000   15.570000
   4172          1    20001034      -24.216000    9.135000   17.339000
   4173          1    20001034      -23.599000    9.434000   15.857000
   4174          1    20001034      -23.410000   11.650000   17.667000
   4175          1    20001034      -22.555000   10.332000   18.113000
   4176          1    20001029      -20.414000   12.794000   16.099000
   4177          1    20001029      -21.552000   13.063000   17.391000
   4178          7    20001014      -27.242000    9.639000   17.537000
   4179          6    20001001      -28.197000    9.409000   18.633000
   4180          6    20001002      -29.053000    8.152000   18.314000
   4181          8    20001025      -29.159000    7.762000   17.114000
   4182          6    20001001      -29.200000   10.627000   18.928000
   4183          6    20001003      -30.050000   11.320000   17.832000
   4184          6    20001003      -30.494000   10.674000   16.658000
   4185          6    20001003      -30.364000   12.685000   18.013000
   4186          6    20001003      -31.248000   11.378000   15.704000
   4187          6    20001003      -31.118000   13.375000   17.050000
   4188          6    20001003      -31.552000   12.731000   15.890000
   4189          8    20001025      -29.564000    7.561000   19.285000
   4190          1    20001029      -27.172000    8.948000   16.715000
   4191          1    20001035      -27.665000    9.186000   19.445000
   4192          1    20001034      -29.847000   10.289000   19.641000
   4193          1    20001034      -28.636000   11.351000   19.373000
   4194          1    20001033      -30.276000    9.724000   16.506000
   4195          1    20001033      -30.049000   13.156000   18.827000
   4196          1    20001033      -31.568000   10.895000   14.879000
   4197          1    20001033      -31.343000   14.351000   17.207000
   4198          1    20001033      -32.071000   13.223000   15.202000
   4199          6    20001002        0.035190    0.886209    7.555131
   4200          7    20001017        1.031469    0.530231    8.459386
   4201          6    90000002        2.285928    0.618673    8.118291
   4202          7    20001015        2.713888    1.036196    6.891655
   4203          6    20001003        1.826125    1.538029    5.968744
   4204          7    20001016        2.329837    2.010515    4.825346
   4205          6    20001003        1.420948    2.497356    3.993340
   4206          6    20001003        0.044501    2.542308    4.289658
   4207          7    20001016       -0.432532    2.037260    5.420293
   4208          6    20001003        0.467463    1.525657    6.269067
   4209          8    20001024       -1.136390    0.670589    7.774793
   4210          7    90000003        3.267761    0.209235    8.971418
   4211          6    90000004       -0.890077    3.183907    3.265028
   4212          8    20001022       -2.230827    2.974917    3.525488
   4213          8    20001022       -1.338543    5.465137    4.024815
   4214          8    20001022        0.153855    4.556286    0.791502
   4215          6    90000004       -0.556154    4.689665    3.123860
   4216          6    90000004       -0.712382    5.224204    1.692709
   4217          1    90000001        3.699963    1.061737    6.667127
   4218          1    20001039        1.794791    2.888546    3.048879
   4219          1    20001035       -0.585095    2.778422    2.288251
   4220          1    20001031       -2.426869    1.993654    3.511847
   4221          1    20001031       -0.961890    6.355252    3.986464
   4222          1    20001031       -0.367563    3.984581    0.214772
   4223          1    20001035        0.508669    4.802657    3.375331
   4224          1    90000001        3.028489    0.178876    9.958688
   4225          1    90000001        4.214025    0.500651    8.773983
   4226          1    20001035       -0.435462    6.288681    1.692459
   4227          1    20001035       -1.756713    5.185609    1.385410
   4228          8    20001021       -9.446000  -12.727000   19.881000
   4229          1    20001030       -9.857000  -13.443000   19.316000
   4230          1    20001030       -9.617000  -12.978000   20.834000
   4231          8    20001021       -1.381000  -13.882000   23.626000
   4232          1    20001030       -1.140000  -14.336000   22.768000
   4233          1    20001030       -0.973000  -14.337000   24.418000
   4234          8    20001021       -9.193000   -8.456000   22.947000
   4235          1    20001030       -8.312000   -8.805000   22.629000
   4236          1    20001030       -9.623000   -9.070000   23.609000
   4237          8    20001021       -7.837000  -18.950000   12.133000
   4238          1    20001030       -6.866000  -18.942000   11.892000
   4239          1    20001030       -8.108000  -19.808000   12.569000
   4240          8    20001021      -12.122000  -21.176000    3.900000
   4241          1    20001030      -11.361000  -20.941000    3.296000
   4242          1    20001030      -11.858000  -22.009000    4.386000
   4243          8    20001021      -14.365000  -27.094000    2.961000
   4244          1    20001030      -14.157000  -28.070000    3.028000
   4245          1    20001030      -15.298000  -26.889000    3.257000
   4246          8    20001021      -15.188000  -20.452000    6.127000
   4247          1    20001030      -14.459000  -20.476000    6.811000
   4248          1    20001030      -15.828000  -21.213000    6.234000
   4249          8    20001021      -10.735000  -15.625000   14.386000
   4250          1    20001030      -10.797000  -15.463000   13.401000
   4251          1    20001030       -9.927000  -16.162000   14.628000
   4252          8    20001021      -12.934000   16.555000   -2.531000
   4253          1    20001030      -12.921000   17.099000   -1.692000
   4254          1    20001030      -12.020000   16.243000   -2.790000
   4255          8    20001021      -13.559000    1.843000   21.342000
   4256          1    20001030      -13.850000    1.913000   20.388000
   4257          1    20001030      -13.699000    0.924000   21.711000
   4258          8    20001021        6.985000  -13.507000   20.548000
   4259          1    20001030        6.675000  -13.837000   19.657000
   4260          1    20001030        6.221000  -13.323000   21.166000
   4261          8    20001021       16.567000  -11.860000   27.011000
   4262          1    20001030       15.831000  -11.668000   27.660000
   4263          1    20001030       16.743000  -11.086000   26.403000
   4264          8    20001021       15.396000    3.266000   21.880000
   4265          1    20001030       14.786000    3.149000   21.096000
   4266          1    20001030       15.278000    4.157000   22.318000
   4267          8    20001021       20.859000    1.635000    7.096000
   4268          1    20001030       21.594000    1.335000    6.488000
   4269          1    20001030       20.391000    0.864000    7.528000
   4270          8    20001021        3.521000    0.836000   -5.488000
   4271          1    20001030        3.937000    0.353000   -4.717000
   4272          1    20001030        3.190000    0.206000   -6.191000
   4273          8    20001021       17.153000    3.985000   -0.291000
   4274          1    20001030       16.206000    4.042000   -0.607000
   4275          1    20001030       17.760000    4.583000   -0.815000
   4276          8    20001021       15.497000   -1.221000   -4.232000
   4277          1    20001030       15.190000   -1.267000   -3.281000
   4278          1    20001030       16.405000   -0.811000   -4.313000
   4279          8    20001021        5.596000  -14.462000    1.471000
   4280          1    20001030        5.706000  -15.455000    1.422000
   4281          1    20001030        4.971000  -14.190000    2.202000
   4282          8    20001021        0.377000  -12.805000   -8.317000
   4283          1    20001030        0.978000  -13.545000   -8.017000
   4284          1    20001030       -0.273000  -13.205000   -8.963000
   4285          8    20001021       -5.046000   -9.863000   -8.285000
   4286          1    20001030       -4.257000   -9.793000   -7.675000
   4287          1    20001030       -5.676000   -9.095000   -8.172000
   4288          8    20001021       -6.833000    0.708000   23.713000
   4289          1    20001030       -6.602000    1.614000   23.357000
   4290          1    20001030       -6.185000    0.010000   23.410000
   4291          8    20001021       -7.621000  -16.351000   21.147000
   4292          1    20001030       -6.923000  -15.639000   21.223000
   4293          1    20001030       -7.790000  -16.805000   22.022000
   4294          8    20001021       13.659000  -11.938000    8.590000
   4295          1    20001030       14.518000  -12.113000    8.108000
   4296          1    20001030       13.452000  -12.653000    9.258000
   4297          8    20001021       -3.780871    6.159181    2.422171
   4298          1    20001030       -3.152939    5.853340    3.105213
   4299          1    20001030       -3.886354    5.309560    1.935705
   4300          8    20001021      -19.437000  -10.997000    3.499000
   4301          1    20001030      -20.221000  -10.381000    3.420000
   4302          1    20001030      -18.692000  -10.737000    2.884000
   4303          8    20001021       -4.678000  -18.153000    0.680000
   4304          1    20001030       -4.308000  -17.976000   -0.232000
   4305          1    20001030       -4.614000  -19.119000    0.930000
   4306          8    20001021       -5.662000  -18.596000  -12.462000
   4307          1    20001030       -5.418000  -18.434000  -13.418000
   4308          1    20001030       -6.323000  -17.925000  -12.125000
   4309          8    20001021        2.142000   14.977000   -0.531000
   4310          1    20001030        2.725000   15.788000   -0.476000
   4311          1    20001030        1.172000   15.215000   -0.575000
   4312          8    20001021        2.217000    9.514000    2.363000
   4313          1    20001030        3.162000    9.208000    2.479000
   4314          1    20001030        2.161000   10.371000    1.851000
   4315          8    20001021      -15.204000   17.039000   -0.998000
   4316          1    20001030      -14.460000   17.510000   -0.525000
   4317          1    20001030      -15.567000   16.277000   -0.462000
   4318          8    20001021      -25.022000   19.051000   -2.857000
   4319          1    20001030      -25.679000   18.600000   -2.253000
   4320          1    20001030      -25.379000   19.161000   -3.784000
   4321          8    20001021       -9.926000   17.261000   -5.842000
   4322          1    20001030      -10.743000   17.568000   -6.330000
   4323          1    20001030       -9.424000   18.024000   -5.435000
   4324          8    20001021      -23.797000   11.575000    9.817000
   4325          1    20001030      -23.126000   11.100000   10.387000
   4326          1    20001030      -24.724000   11.231000    9.964000
   4327          8    20001021       -8.157000    9.351000   13.423000
   4328          1    20001030       -7.475000    8.643000   13.240000
   4329          1    20001030       -8.698000    9.037000   14.203000
   4330          8    20001021      -10.077000   11.878000   20.943000
   4331          1    20001030       -9.248000   11.707000   20.411000
   4332          1    20001030       -9.886000   11.948000   21.922000
   4333          8    20001021       22.065000  -16.042000   16.682000
   4334          1    20001030       23.010000  -16.367000   16.659000
   4335          1    20001030       21.982000  -15.163000   17.152000
   4336          8    20001021       17.359000   -7.989000   15.010000
   4337          1    20001030       17.122000   -8.911000   14.704000
   4338          1    20001030       18.120000   -7.605000   14.487000
   4339          8    20001021        5.053000    8.594000    2.712000
   4340          1    20001030        5.507000    7.809000    2.291000
   4341          1    20001030        5.487000    9.458000    2.458000
   4342          8    20001021        4.776000  -21.489000   -3.466000
   4343          1    20001030        5.673000  -21.919000   -3.564000
   4344          1    20001030        4.176000  -21.693000   -4.239000
   4345          8    20001021       -1.887000   13.833000    5.849000
   4346          1    20001030       -2.657000   14.391000    6.158000
   4347          1    20001030       -1.027000   14.344000    5.853000
   4348          8    20001021        4.462000  -13.412000  -11.603000
   4349          1    20001030        4.511000  -14.197000  -12.220000
   4350          1    20001030        4.190000  -13.678000  -10.678000
   4351          8    20001021        1.045000   -7.326000   -1.746000
   4352          1    20001030        1.309000   -8.065000   -2.366000
   4353          1    20001030        1.064000   -6.433000   -2.196000
   4354          8    20001021       -9.508000  -12.181000   -5.898000
   4355          1    20001030       -9.339000  -11.234000   -5.625000
   4356          1    20001030       -9.142000  -12.381000   -6.807000
   4357          8    20001021       -0.360000    4.089000   30.028000
   4358          1    20001030       -0.704000    3.276000   30.498000
   4359          1    20001030        0.180000    4.672000   30.635000
   4360          8    20001021       -0.461000    6.335000    7.838000
   4361          1    20001030       -1.202000    6.999000    7.935000
   4362          1    20001030       -0.359000    6.022000    6.894000
   4363          8    20001021        6.733000    5.276000    9.786000
   4364          1    20001030        7.244000    5.768000   10.491000
   4365          1    20001030        6.561000    5.927000    9.046000
   4366          8    20001021       -4.581000    9.442000    0.584000
   4367          1    20001030       -4.181000    8.710000    0.032000
   4368          1    20001030       -4.141000    9.520000    1.478000
   4369          8    20001021       -5.118568    2.847739    3.358072
   4370          1    20001030       -4.947747    1.899614    3.536687
   4371          1    20001030       -4.277065    3.157403    2.985213
   4372          8    20001021       -4.162000   11.967000    9.521000
   4373          1    20001030       -4.003000   11.481000   10.381000
   4374          1    20001030       -3.572000   12.770000    9.430000
   4375          8    20001021        2.760000   15.118000    6.983000
   4376          1    20001030        2.188000   15.846000    6.607000
   4377          1    20001030        3.349000   14.707000    6.288000
   4378          8    20001021       -6.961000   17.187000   12.619000
   4379          1    20001030       -7.795000   17.174000   12.068000
   4380          1    20001030       -6.260000   17.780000   12.223000
   4381          8    20001021       -3.183000    8.773000    8.193000
   4382          1    20001030       -3.455000    9.661000    8.562000
   4383          1    20001030       -3.315000    8.722000    7.203000
   4384          8    20001021       -4.310000   15.591000    6.823000
   4385          1    20001030       -4.240000   16.536000    6.503000
   4386          1    20001030       -4.370000   15.627000    7.821000
   4387          8    20001021        4.195887    4.918318    1.400327
   4388          1    20001030        5.043041    5.450330    1.428164
   4389          1    20001030        3.566613    5.604126    1.143313
   4390          8    20001021       -3.637000   10.358000   12.367000
   4391          1    20001030       -4.256000    9.603000   12.582000
   4392          1    20001030       -2.689000   10.052000   12.279000
 ---------------------------------------------------------------------
 Rotational constants (GHZ):           0.0000938           0.0000706           0.0000585
 ONIOM: Cut between C /H  1257 and N  1276 factor= 0.700189 0.700189
 ONIOM: Cut between N /H  1292 and C  1278 factor= 0.786011 0.786011
 ONIOM: Cut between C /H  1882 and N  1887 factor= 0.700189 0.700189
 ONIOM: Cut between N /H  1894 and C  1889 factor= 0.786011 0.786011
 ONIOM: Cut between C /H  2738 and N  2747 factor= 0.700189 0.700189
 ONIOM: Cut between N /H  2762 and C  2749 factor= 0.786011 0.786011
 ONIOM: saving gridpoint 17
 ONIOM: generating point  3 -- low level on real system.
 Standard basis: Dummy (5D, 7F)
  4392 basis functions,  4392 primitive gaussians,  4392 cartesian basis functions
  3101 alpha electrons     3101 beta electrons
       nuclear repulsion energy    535779.2107644733 Hartrees.
 NAtoms= 4392 NActive= 4392 NUniq= 4392 SFac= 1.00D+00 NAtFMM=   60 NAOKFM=T Big=T
 Integral buffers will be    131072 words long.
 Raffenetti 1 integral format.
 Two-electron integral symmetry is turned off.
 AMBER calculation of energy.
 Energy=   -0.150569997     NIter=   0.
 Dipole moment=     -36.273337     -76.575426     -48.197235
 ONIOM: saving gridpoint  3
 ONIOM: restoring gridpoint 17
 ONIOM: generating point  2 -- high level on model system.
 Standard basis: STO-3G (5D, 7F)
   246 basis functions,   738 primitive gaussians,   246 cartesian basis functions
   160 alpha electrons      160 beta electrons
       nuclear repulsion energy      4874.1494440029 Hartrees.
 NAtoms= 4392 NActive=   82 NUniq=   82 SFac= 1.00D+00 NAtFMM=   60 NAOKFM=T Big=T
 Integral buffers will be    131072 words long.
 Raffenetti 1 integral format.
 Two-electron integral symmetry is turned off.
 External calculation of energy.
 Running external command "Copy.py M"
         input file       "/tmp/93985.mgr/Gau-6697.EIn"
         output file      "/tmp/93985.mgr/Gau-6697.EOu"
         message file     "/tmp/93985.mgr/Gau-6697.EMs"
         fchk file        "/tmp/93985.mgr/Gau-6697.EFC"
         mat. el file     "/tmp/93985.mgr/Gau-6697.EUF"
 Failed to open output file from external program.
 Error termination via Lnk1e in /share/apps/gaussian/g16/l402.exe at Tue Jul 16 20:49:22 2024.
 Job cpu time:       0 days  0 hours  0 minutes 32.9 seconds.
 Elapsed time:       0 days  0 hours  0 minutes  8.6 seconds.
 File lengths (MBytes):  RWF=     46 Int=      0 D2E=      0 Chk=     15 Scr=      1
Tue Jul 16 20:49:24 CST 2024
