 Entering Gaussian System, Link 0=g16
 Input=1aid_ligand_aiqm1.gjf
 Output=1aid_ligand_aiqm1.log
 Initial command:
 /share/apps/gaussian/g16/l1.exe "/tmp/Gau-19460.inp" -scrdir="/tmp/"
 Entering Link 1 = /share/apps/gaussian/g16/l1.exe PID=     19461.
  
 Copyright (c) 1988,1990,1992,1993,1995,1998,2003,2009,2016,
            Gaussian, Inc.  All Rights Reserved.
  
 This is part of the Gaussian(R) 16 program.  It is based on
 the Gaussian(R) 09 system (copyright 2009, Gaussian, Inc.),
 the Gaussian(R) 03 system (copyright 2003, Gaussian, Inc.),
 the Gaussian(R) 98 system (copyright 1998, Gaussian, Inc.),
 the Gaussian(R) 94 system (copyright 1995, Gaussian, Inc.),
 the Gaussian 92(TM) system (copyright 1992, Gaussian, Inc.),
 the Gaussian 90(TM) system (copyright 1990, Gaussian, Inc.),
 the Gaussian 88(TM) system (copyright 1988, Gaussian, Inc.),
 the Gaussian 86(TM) system (copyright 1986, Carnegie Mellon
 University), and the Gaussian 82(TM) system (copyright 1983,
 Carnegie Mellon University). Gaussian is a federally registered
 trademark of Gaussian, Inc.
  
 This software contains proprietary and confidential information,
 including trade secrets, belonging to Gaussian, Inc.
  
 This software is provided under written license and may be
 used, copied, transmitted, or stored only in accord with that
 written license.
  
 The following legend is applicable only to US Government
 contracts under FAR:
  
                    RESTRICTED RIGHTS LEGEND
  
 Use, reproduction and disclosure by the US Government is
 subject to restrictions as set forth in subparagraphs (a)
 and (c) of the Commercial Computer Software - Restricted
 Rights clause in FAR 52.227-19.
  
 Gaussian, Inc.
 340 Quinnipiac St., Bldg. 40, Wallingford CT 06492
  
  
 ---------------------------------------------------------------
 Warning -- This program may not be used in any manner that
 competes with the business of Gaussian, Inc. or will provide
 assistance to any competitor of Gaussian, Inc.  The licensee
 of this program is prohibited from giving any competitor of
 Gaussian, Inc. access to this program.  By using this program,
 the user acknowledges that Gaussian, Inc. is engaged in the
 business of creating and licensing software in the field of
 computational chemistry and represents and warrants to the
 licensee that it is not a competitor of Gaussian, Inc. and that
 it will not use this program in any manner prohibited above.
 ---------------------------------------------------------------
  

 Cite this work as:
 Gaussian 16, Revision A.03,
 M. J. Frisch, G. W. Trucks, H. B. Schlegel, G. E. Scuseria, 
 M. A. Robb, J. R. Cheeseman, G. Scalmani, V. Barone, 
 G. A. Petersson, H. Nakatsuji, X. Li, M. Caricato, A. V. Marenich, 
 J. Bloino, B. G. Janesko, R. Gomperts, B. Mennucci, H. P. Hratchian, 
 J. V. Ortiz, A. F. Izmaylov, J. L. Sonnenberg, D. Williams-Young, 
 F. Ding, F. Lipparini, F. Egidi, J. Goings, B. Peng, A. Petrone, 
 T. Henderson, D. Ranasinghe, V. G. Zakrzewski, J. Gao, N. Rega, 
 G. Zheng, W. Liang, M. Hada, M. Ehara, K. Toyota, R. Fukuda, 
 J. Hasegawa, M. Ishida, T. Nakajima, Y. Honda, O. Kitao, H. Nakai, 
 T. Vreven, K. Throssell, J. A. Montgomery, Jr., J. E. Peralta, 
 F. Ogliaro, M. J. Bearpark, J. J. Heyd, E. N. Brothers, K. N. Kudin, 
 V. N. Staroverov, T. A. Keith, R. Kobayashi, J. Normand, 
 K. Raghavachari, A. P. Rendell, J. C. Burant, S. S. Iyengar, 
 J. Tomasi, M. Cossi, J. M. Millam, M. Klene, C. Adamo, R. Cammi, 
 J. W. Ochterski, R. L. Martin, K. Morokuma, O. Farkas, 
 J. B. Foresman, and D. J. Fox, Gaussian, Inc., Wallingford CT, 2016.
 
 ******************************************
 Gaussian 16:  ES64L-G16RevA.03 25-Dec-2016
                 2-Aug-2024 
 ******************************************
 %nprocshared=4
 Will use up to    4 processors via shared memory.
 %mem=4GB
 ----------------------------------------------------------------------
 # opt=nomicro oniom(external='GauAPIs -m AIQM1':external='GauAPIs -m g
 fn2-xtb -n 4') nosymm geom=connectivity
 ----------------------------------------------------------------------
 1/18=20,19=15,26=1,38=1,52=2,57=2/1,3;
 2/9=110,12=2,15=1,17=6,18=5,40=1/2;
 1/18=20,19=15,26=1,38=1,52=2,53=3172/20;
 3/11=9,25=1,30=1,41=9900000,43=2,71=1/1;
 4/20=17,22=1,24=3,113=1,114=1/2;
 6/7=2,8=2,9=2,10=2/1;
 7/7=1,30=1,33=-1,44=-1/16;
 1/18=20,19=15,26=1,52=2,53=2032/20;
 3/11=9,25=1,30=1,41=9900000,43=2,71=1/1;
 4/20=17,22=1,24=3,113=2,114=2/2;
 6/7=2,8=2,9=2,10=2/1;
 7/7=1,30=1,33=-1,44=-1/16;
 1/18=20,19=15,26=1,52=2,53=1022/20;
 3/11=9,25=1,30=1,41=9900000,43=2,71=1/1;
 4/20=17,22=1,24=3,113=1,114=2/2;
 6/7=2,8=2,9=2,10=2/1;
 7/7=1,30=1,33=-1,44=-1/16;
 1/18=20,19=15,26=1,52=2,53=3015/20;
 7/9=1,44=-1,126=2/16;
 1/18=20,19=15,26=1,52=2/3(2);
 2/9=110,15=1/2;
 99//99;
 2/9=110,15=1/2;
 1/18=20,19=15,26=1,52=2,53=3173/20;
 3/11=9,25=1,30=1,41=9900000,43=2,71=1/1;
 4/16=2,20=17,22=1,24=3,113=1,114=1/2;
 7/7=1,30=1,33=-1,44=-1/16;
 1/18=20,19=15,26=1,52=2,53=2033/20;
 3/11=9,25=1,30=1,41=9900000,43=2,71=1/1;
 4/16=2,20=17,22=1,24=3,113=2,114=2/2;
 7/7=1,30=1,33=-1,44=-1/16;
 1/18=20,19=15,26=1,52=2,53=1023/20;
 3/11=9,25=1,30=1,41=9900000,43=2,71=1/1;
 4/16=2,20=17,22=1,24=3,113=1,114=2/2;
 7/7=1,30=1,33=-1,44=-1/16;
 1/18=20,19=15,26=1,52=2,53=3015/20;
 7/9=1,44=-1,126=2/16;
 1/18=20,19=15,26=1,52=2/3(-15);
 2/9=110,15=1/2;
 99//99;
 ---------------
 1aid_THK_conf_1
 ---------------
 Symbolic Z-matrix:
 Charge =  0 Multiplicity = 1 for low   level calculation on real  system.
 Charge =  0 Multiplicity = 1 for high  level calculation on model system.
 Charge =  0 Multiplicity = 1 for low   level calculation on model system.
 N                    0     63.265    38.766   -0.214    H 
 C                    0     63.012    39.892   -1.133    H 
 C                    0     62.672    39.414   -2.55     H 
 C                    0     63.697    38.401   -3.095    H 
 O                    0     64.981    39.019   -3.106    H 
 C                    0     63.768    37.224   -2.108    H 
 C                    0     64.169    37.711   -0.712    H 
 C                    0     63.787    39.224    1.09     H 
 C                    0     62.76     40.033    1.89     H 
 C                    0     63.515    41.115    2.679    H 
 C                    0     62.869    41.417    4.046    L    H        10    0.        0. 
 C                    0     62.964    40.279    4.905    L 
 C                    0     64.213    39.889    5.419    L 
 C                    0     64.357    38.711    6.157    L 
 C                    0     63.244    37.907    6.403    L 
 F                    0     63.381    36.724    7.069    L 
 C                    0     61.99     38.311    5.935    L 
 C                    0     61.842    39.492    5.2      L 
 C                    0     63.426    38.045   -4.454    H 
 C                    0     63.206    39.061   -5.405    H 
 C                    0     62.847    38.76    -6.72     H 
 C                    0     62.717    37.43    -7.118    H 
 Cl                   0     62.172    37.073   -8.741    L    H        22    0.        0. 
 C                    0     62.976    36.402   -6.195    H 
 C                    0     63.343    36.706   -4.874    H 
 S                    0     61.138    41.902    3.76     L 
 C                    0     61.082    43.324    4.892    L 
 C                    0     62.445    43.775    5.427    L 
 S                    0     63.82     42.802    4.78     L 
 H                    0     62.221    40.569   -0.734    H 
 H                    0     63.867    40.606   -1.142    H 
 H                    0     61.637    39.001   -2.596    H 
 H                    0     62.552    40.276   -3.246    H 
 H                    0     65.613    38.394   -3.442    H 
 H                    0     62.815    36.645   -2.085    H 
 H                    0     64.445    36.417   -2.474    H 
 H                    0     65.232    38.045   -0.69     H 
 H                    0     64.236    36.862    0.008    H 
 H                    0     64.173    38.366    1.688    H 
 H                    0     64.734    39.797    0.961    H 
 H                    0     61.949    40.453    1.249    H 
 H                    0     62.119    39.392    2.541    H 
 H                    0     64.59     40.846    2.796    H 
 H                    0     63.625    42.045    2.075    H 
 H                    0     65.099    40.52     5.239    L 
 H                    0     65.346    38.416    6.544    L 
 H                    0     61.104    37.689    6.148    L 
 H                    0     60.841    39.802    4.853    L 
 H                    0     63.317    40.118   -5.112    H 
 H                    0     62.666    39.572   -7.443    H 
 H                    0     62.89     35.348   -6.509    H 
 H                    0     63.566    35.891   -4.164    H 
 H                    0     60.554    44.179    4.41     L 
 H                    0     60.384    43.117    5.737    L 
 H                    0     62.605    44.862    5.238    L 
 H                    0     62.451    43.779    6.542    L 
 

 GradGradGradGradGradGradGradGradGradGradGradGradGradGradGradGradGradGrad
 Berny optimization.
 Initialization pass.
                           ----------------------------
                           !    Initial Parameters    !
                           ! (Angstroms and Degrees)  !
 --------------------------                            --------------------------
 ! Name  Definition              Value          Derivative Info.                !
 --------------------------------------------------------------------------------
 ! R1    R(1,2)                  1.4753         estimate D2E/DX2                !
 ! R2    R(1,7)                  1.4759         estimate D2E/DX2                !
 ! R3    R(1,8)                  1.4774         estimate D2E/DX2                !
 ! R4    R(2,3)                  1.5336         estimate D2E/DX2                !
 ! R5    R(2,30)                 1.115          estimate D2E/DX2                !
 ! R6    R(2,31)                 1.114          estimate D2E/DX2                !
 ! R7    R(3,4)                  1.5407         estimate D2E/DX2                !
 ! R8    R(3,32)                 1.1153         estimate D2E/DX2                !
 ! R9    R(3,33)                 1.1144         estimate D2E/DX2                !
 ! R10   R(4,5)                  1.425          estimate D2E/DX2                !
 ! R11   R(4,6)                  1.5377         estimate D2E/DX2                !
 ! R12   R(4,19)                 1.4308         estimate D2E/DX2                !
 ! R13   R(5,34)                 0.9502         estimate D2E/DX2                !
 ! R14   R(6,7)                  1.5319         estimate D2E/DX2                !
 ! R15   R(6,35)                 1.1153         estimate D2E/DX2                !
 ! R16   R(6,36)                 1.1151         estimate D2E/DX2                !
 ! R17   R(7,37)                 1.1145         estimate D2E/DX2                !
 ! R18   R(7,38)                 1.1152         estimate D2E/DX2                !
 ! R19   R(8,9)                  1.5327         estimate D2E/DX2                !
 ! R20   R(8,39)                 1.1148         estimate D2E/DX2                !
 ! R21   R(8,40)                 1.1144         estimate D2E/DX2                !
 ! R22   R(9,10)                 1.5373         estimate D2E/DX2                !
 ! R23   R(9,41)                 1.1158         estimate D2E/DX2                !
 ! R24   R(9,42)                 1.116          estimate D2E/DX2                !
 ! R25   R(10,11)                1.5418         estimate D2E/DX2                !
 ! R26   R(10,43)                1.1143         estimate D2E/DX2                !
 ! R27   R(10,44)                1.1144         estimate D2E/DX2                !
 ! R28   R(11,12)                1.429          estimate D2E/DX2                !
 ! R29   R(11,26)                1.8203         estimate D2E/DX2                !
 ! R30   R(11,29)                1.8334         estimate D2E/DX2                !
 ! R31   R(12,13)                1.4058         estimate D2E/DX2                !
 ! R32   R(12,18)                1.4019         estimate D2E/DX2                !
 ! R33   R(13,14)                1.3975         estimate D2E/DX2                !
 ! R34   R(13,45)                1.1025         estimate D2E/DX2                !
 ! R35   R(14,15)                1.3949         estimate D2E/DX2                !
 ! R36   R(14,46)                1.1022         estimate D2E/DX2                !
 ! R37   R(15,16)                1.3645         estimate D2E/DX2                !
 ! R38   R(15,17)                1.3981         estimate D2E/DX2                !
 ! R39   R(17,18)                1.3989         estimate D2E/DX2                !
 ! R40   R(17,47)                1.1033         estimate D2E/DX2                !
 ! R41   R(18,48)                1.1039         estimate D2E/DX2                !
 ! R42   R(19,20)                1.4089         estimate D2E/DX2                !
 ! R43   R(19,25)                1.4058         estimate D2E/DX2                !
 ! R44   R(20,21)                1.396          estimate D2E/DX2                !
 ! R45   R(20,49)                1.1025         estimate D2E/DX2                !
 ! R46   R(21,22)                1.3943         estimate D2E/DX2                !
 ! R47   R(21,50)                1.1022         estimate D2E/DX2                !
 ! R48   R(22,23)                1.7489         estimate D2E/DX2                !
 ! R49   R(22,24)                1.4056         estimate D2E/DX2                !
 ! R50   R(24,25)                1.4043         estimate D2E/DX2                !
 ! R51   R(24,51)                1.1031         estimate D2E/DX2                !
 ! R52   R(25,52)                1.1037         estimate D2E/DX2                !
 ! R53   R(26,27)                1.8184         estimate D2E/DX2                !
 ! R54   R(27,28)                1.5321         estimate D2E/DX2                !
 ! R55   R(27,53)                1.1145         estimate D2E/DX2                !
 ! R56   R(27,54)                1.1154         estimate D2E/DX2                !
 ! R57   R(28,29)                1.8044         estimate D2E/DX2                !
 ! R58   R(28,55)                1.1148         estimate D2E/DX2                !
 ! R59   R(28,56)                1.115          estimate D2E/DX2                !
 ! A1    A(2,1,7)              116.1317         estimate D2E/DX2                !
 ! A2    A(2,1,8)              111.9507         estimate D2E/DX2                !
 ! A3    A(7,1,8)              107.6383         estimate D2E/DX2                !
 ! A4    A(1,2,3)              112.0673         estimate D2E/DX2                !
 ! A5    A(1,2,30)             111.2336         estimate D2E/DX2                !
 ! A6    A(1,2,31)             111.2609         estimate D2E/DX2                !
 ! A7    A(3,2,30)             111.2605         estimate D2E/DX2                !
 ! A8    A(3,2,31)             111.252          estimate D2E/DX2                !
 ! A9    A(30,2,31)             99.1036         estimate D2E/DX2                !
 ! A10   A(2,3,4)              112.5984         estimate D2E/DX2                !
 ! A11   A(2,3,32)             111.0547         estimate D2E/DX2                !
 ! A12   A(2,3,33)             111.0909         estimate D2E/DX2                !
 ! A13   A(4,3,32)             111.058          estimate D2E/DX2                !
 ! A14   A(4,3,33)             111.0566         estimate D2E/DX2                !
 ! A15   A(32,3,33)             99.2503         estimate D2E/DX2                !
 ! A16   A(3,4,5)              108.4834         estimate D2E/DX2                !
 ! A17   A(3,4,6)              107.8741         estimate D2E/DX2                !
 ! A18   A(3,4,19)             111.9363         estimate D2E/DX2                !
 ! A19   A(5,4,6)              107.1754         estimate D2E/DX2                !
 ! A20   A(5,4,19)             105.7381         estimate D2E/DX2                !
 ! A21   A(6,4,19)             115.3386         estimate D2E/DX2                !
 ! A22   A(4,5,34)             108.4674         estimate D2E/DX2                !
 ! A23   A(4,6,7)              110.712          estimate D2E/DX2                !
 ! A24   A(4,6,35)             111.7857         estimate D2E/DX2                !
 ! A25   A(4,6,36)             111.7949         estimate D2E/DX2                !
 ! A26   A(7,6,35)             111.7095         estimate D2E/DX2                !
 ! A27   A(7,6,36)             111.7299         estimate D2E/DX2                !
 ! A28   A(35,6,36)             98.6168         estimate D2E/DX2                !
 ! A29   A(1,7,6)              111.987          estimate D2E/DX2                !
 ! A30   A(1,7,37)             111.3055         estimate D2E/DX2                !
 ! A31   A(1,7,38)             111.2933         estimate D2E/DX2                !
 ! A32   A(6,7,37)             111.2809         estimate D2E/DX2                !
 ! A33   A(6,7,38)             111.2259         estimate D2E/DX2                !
 ! A34   A(37,7,38)             99.0971         estimate D2E/DX2                !
 ! A35   A(1,8,9)              112.8037         estimate D2E/DX2                !
 ! A36   A(1,8,39)             110.9291         estimate D2E/DX2                !
 ! A37   A(1,8,40)             110.9464         estimate D2E/DX2                !
 ! A38   A(9,8,39)             110.9934         estimate D2E/DX2                !
 ! A39   A(9,8,40)             111.0045         estimate D2E/DX2                !
 ! A40   A(39,8,40)             99.4158         estimate D2E/DX2                !
 ! A41   A(8,9,10)             108.0777         estimate D2E/DX2                !
 ! A42   A(8,9,41)             112.6964         estimate D2E/DX2                !
 ! A43   A(8,9,42)             112.715          estimate D2E/DX2                !
 ! A44   A(10,9,41)            112.7604         estimate D2E/DX2                !
 ! A45   A(10,9,42)            112.7645         estimate D2E/DX2                !
 ! A46   A(41,9,42)             97.6911         estimate D2E/DX2                !
 ! A47   A(9,10,11)            112.7763         estimate D2E/DX2                !
 ! A48   A(9,10,43)            110.9639         estimate D2E/DX2                !
 ! A49   A(9,10,44)            110.9581         estimate D2E/DX2                !
 ! A50   A(11,10,43)           111.0019         estimate D2E/DX2                !
 ! A51   A(11,10,44)           111.0049         estimate D2E/DX2                !
 ! A52   A(43,10,44)            99.3897         estimate D2E/DX2                !
 ! A53   A(10,11,12)           110.4341         estimate D2E/DX2                !
 ! A54   A(10,11,26)           108.1389         estimate D2E/DX2                !
 ! A55   A(10,11,29)           106.5941         estimate D2E/DX2                !
 ! A56   A(12,11,26)           111.7071         estimate D2E/DX2                !
 ! A57   A(12,11,29)           109.0539         estimate D2E/DX2                !
 ! A58   A(26,11,29)           110.7868         estimate D2E/DX2                !
 ! A59   A(11,12,13)           119.9859         estimate D2E/DX2                !
 ! A60   A(11,12,18)           121.3568         estimate D2E/DX2                !
 ! A61   A(13,12,18)           118.5809         estimate D2E/DX2                !
 ! A62   A(12,13,14)           121.2296         estimate D2E/DX2                !
 ! A63   A(12,13,45)           119.7032         estimate D2E/DX2                !
 ! A64   A(14,13,45)           119.0672         estimate D2E/DX2                !
 ! A65   A(13,14,15)           119.7864         estimate D2E/DX2                !
 ! A66   A(13,14,46)           120.2295         estimate D2E/DX2                !
 ! A67   A(15,14,46)           119.9842         estimate D2E/DX2                !
 ! A68   A(14,15,16)           120.3775         estimate D2E/DX2                !
 ! A69   A(14,15,17)           119.3456         estimate D2E/DX2                !
 ! A70   A(16,15,17)           120.2625         estimate D2E/DX2                !
 ! A71   A(15,17,18)           120.9786         estimate D2E/DX2                !
 ! A72   A(15,17,47)           119.5209         estimate D2E/DX2                !
 ! A73   A(18,17,47)           119.5005         estimate D2E/DX2                !
 ! A74   A(12,18,17)           119.9891         estimate D2E/DX2                !
 ! A75   A(12,18,48)           120.1302         estimate D2E/DX2                !
 ! A76   A(17,18,48)           119.8807         estimate D2E/DX2                !
 ! A77   A(4,19,20)            119.4248         estimate D2E/DX2                !
 ! A78   A(4,19,25)            122.1385         estimate D2E/DX2                !
 ! A79   A(20,19,25)           118.4233         estimate D2E/DX2                !
 ! A80   A(19,20,21)           121.3662         estimate D2E/DX2                !
 ! A81   A(19,20,49)           119.7537         estimate D2E/DX2                !
 ! A82   A(21,20,49)           118.8802         estimate D2E/DX2                !
 ! A83   A(20,21,22)           119.9029         estimate D2E/DX2                !
 ! A84   A(20,21,50)           120.0861         estimate D2E/DX2                !
 ! A85   A(22,21,50)           120.011          estimate D2E/DX2                !
 ! A86   A(21,22,23)           119.2523         estimate D2E/DX2                !
 ! A87   A(21,22,24)           119.5369         estimate D2E/DX2                !
 ! A88   A(23,22,24)           121.1654         estimate D2E/DX2                !
 ! A89   A(22,24,25)           120.4986         estimate D2E/DX2                !
 ! A90   A(22,24,51)           119.8344         estimate D2E/DX2                !
 ! A91   A(25,24,51)           119.6669         estimate D2E/DX2                !
 ! A92   A(19,25,24)           120.176          estimate D2E/DX2                !
 ! A93   A(19,25,52)           119.9501         estimate D2E/DX2                !
 ! A94   A(24,25,52)           119.8738         estimate D2E/DX2                !
 ! A95   A(11,26,27)            98.0383         estimate D2E/DX2                !
 ! A96   A(26,27,28)           114.8454         estimate D2E/DX2                !
 ! A97   A(26,27,53)           110.1987         estimate D2E/DX2                !
 ! A98   A(26,27,54)           110.228          estimate D2E/DX2                !
 ! A99   A(28,27,53)           110.2826         estimate D2E/DX2                !
 ! A100  A(28,27,54)           110.292          estimate D2E/DX2                !
 ! A101  A(53,27,54)            99.9938         estimate D2E/DX2                !
 ! A102  A(27,28,29)           113.2014         estimate D2E/DX2                !
 ! A103  A(27,28,55)           110.8233         estimate D2E/DX2                !
 ! A104  A(27,28,56)           110.795          estimate D2E/DX2                !
 ! A105  A(29,28,55)           110.8308         estimate D2E/DX2                !
 ! A106  A(29,28,56)           110.8786         estimate D2E/DX2                !
 ! A107  A(55,28,56)            99.5121         estimate D2E/DX2                !
 ! A108  A(11,29,28)            98.9536         estimate D2E/DX2                !
 ! D1    D(7,1,2,3)             47.2998         estimate D2E/DX2                !
 ! D2    D(7,1,2,30)           172.5596         estimate D2E/DX2                !
 ! D3    D(7,1,2,31)           -77.9698         estimate D2E/DX2                !
 ! D4    D(8,1,2,3)            171.4665         estimate D2E/DX2                !
 ! D5    D(8,1,2,30)           -63.2738         estimate D2E/DX2                !
 ! D6    D(8,1,2,31)            46.1968         estimate D2E/DX2                !
 ! D7    D(2,1,7,6)            -50.0269         estimate D2E/DX2                !
 ! D8    D(2,1,7,37)            75.254          estimate D2E/DX2                !
 ! D9    D(2,1,7,38)          -175.2257         estimate D2E/DX2                !
 ! D10   D(8,1,7,6)           -176.3892         estimate D2E/DX2                !
 ! D11   D(8,1,7,37)           -51.1083         estimate D2E/DX2                !
 ! D12   D(8,1,7,38)            58.412          estimate D2E/DX2                !
 ! D13   D(2,1,8,9)             66.7503         estimate D2E/DX2                !
 ! D14   D(2,1,8,39)          -168.0181         estimate D2E/DX2                !
 ! D15   D(2,1,8,40)           -58.5097         estimate D2E/DX2                !
 ! D16   D(7,1,8,9)           -164.4626         estimate D2E/DX2                !
 ! D17   D(7,1,8,39)           -39.231          estimate D2E/DX2                !
 ! D18   D(7,1,8,40)            70.2774         estimate D2E/DX2                !
 ! D19   D(1,2,3,4)            -50.8714         estimate D2E/DX2                !
 ! D20   D(1,2,3,32)            74.3873         estimate D2E/DX2                !
 ! D21   D(1,2,3,33)          -176.1565         estimate D2E/DX2                !
 ! D22   D(30,2,3,4)          -176.1164         estimate D2E/DX2                !
 ! D23   D(30,2,3,32)          -50.8577         estimate D2E/DX2                !
 ! D24   D(30,2,3,33)           58.5986         estimate D2E/DX2                !
 ! D25   D(31,2,3,4)            74.4031         estimate D2E/DX2                !
 ! D26   D(31,2,3,32)         -160.3382         estimate D2E/DX2                !
 ! D27   D(31,2,3,33)          -50.882          estimate D2E/DX2                !
 ! D28   D(2,3,4,5)            -59.1027         estimate D2E/DX2                !
 ! D29   D(2,3,4,6)             56.6795         estimate D2E/DX2                !
 ! D30   D(2,3,4,19)          -175.3942         estimate D2E/DX2                !
 ! D31   D(32,3,4,5)           175.6404         estimate D2E/DX2                !
 ! D32   D(32,3,4,6)           -68.5774         estimate D2E/DX2                !
 ! D33   D(32,3,4,19)           59.3489         estimate D2E/DX2                !
 ! D34   D(33,3,4,5)            66.201          estimate D2E/DX2                !
 ! D35   D(33,3,4,6)          -178.0168         estimate D2E/DX2                !
 ! D36   D(33,3,4,19)          -50.0905         estimate D2E/DX2                !
 ! D37   D(3,4,5,34)           179.9893         estimate D2E/DX2                !
 ! D38   D(6,4,5,34)            63.755          estimate D2E/DX2                !
 ! D39   D(19,4,5,34)          -59.7831         estimate D2E/DX2                !
 ! D40   D(3,4,6,7)            -58.4526         estimate D2E/DX2                !
 ! D41   D(3,4,6,35)            66.7872         estimate D2E/DX2                !
 ! D42   D(3,4,6,36)           176.2741         estimate D2E/DX2                !
 ! D43   D(5,4,6,7)             58.1841         estimate D2E/DX2                !
 ! D44   D(5,4,6,35)          -176.576          estimate D2E/DX2                !
 ! D45   D(5,4,6,36)           -67.0892         estimate D2E/DX2                !
 ! D46   D(19,4,6,7)           175.6022         estimate D2E/DX2                !
 ! D47   D(19,4,6,35)          -59.158          estimate D2E/DX2                !
 ! D48   D(19,4,6,36)           50.3288         estimate D2E/DX2                !
 ! D49   D(3,4,19,20)           49.6808         estimate D2E/DX2                !
 ! D50   D(3,4,19,25)         -128.9645         estimate D2E/DX2                !
 ! D51   D(5,4,19,20)          -68.2613         estimate D2E/DX2                !
 ! D52   D(5,4,19,25)          113.0934         estimate D2E/DX2                !
 ! D53   D(6,4,19,20)          173.5161         estimate D2E/DX2                !
 ! D54   D(6,4,19,25)           -5.1292         estimate D2E/DX2                !
 ! D55   D(4,6,7,1)             55.5006         estimate D2E/DX2                !
 ! D56   D(4,6,7,37)           -69.7938         estimate D2E/DX2                !
 ! D57   D(4,6,7,38)          -179.2634         estimate D2E/DX2                !
 ! D58   D(35,6,7,1)           -69.7821         estimate D2E/DX2                !
 ! D59   D(35,6,7,37)          164.9234         estimate D2E/DX2                !
 ! D60   D(35,6,7,38)           55.4538         estimate D2E/DX2                !
 ! D61   D(36,6,7,1)          -179.1893         estimate D2E/DX2                !
 ! D62   D(36,6,7,37)           55.5162         estimate D2E/DX2                !
 ! D63   D(36,6,7,38)          -53.9534         estimate D2E/DX2                !
 ! D64   D(1,8,9,10)          -145.7608         estimate D2E/DX2                !
 ! D65   D(1,8,9,41)           -20.4755         estimate D2E/DX2                !
 ! D66   D(1,8,9,42)            88.9357         estimate D2E/DX2                !
 ! D67   D(39,8,9,10)           89.0426         estimate D2E/DX2                !
 ! D68   D(39,8,9,41)         -145.6722         estimate D2E/DX2                !
 ! D69   D(39,8,9,42)          -36.261          estimate D2E/DX2                !
 ! D70   D(40,8,9,10)          -20.5323         estimate D2E/DX2                !
 ! D71   D(40,8,9,41)          104.753          estimate D2E/DX2                !
 ! D72   D(40,8,9,42)         -145.8358         estimate D2E/DX2                !
 ! D73   D(8,9,10,11)         -146.0126         estimate D2E/DX2                !
 ! D74   D(8,9,10,43)          -20.7634         estimate D2E/DX2                !
 ! D75   D(8,9,10,44)           88.7387         estimate D2E/DX2                !
 ! D76   D(41,9,10,11)          88.74           estimate D2E/DX2                !
 ! D77   D(41,9,10,43)        -146.0108         estimate D2E/DX2                !
 ! D78   D(41,9,10,44)         -36.5086         estimate D2E/DX2                !
 ! D79   D(42,9,10,11)         -20.7384         estimate D2E/DX2                !
 ! D80   D(42,9,10,43)         104.5108         estimate D2E/DX2                !
 ! D81   D(42,9,10,44)        -145.987          estimate D2E/DX2                !
 ! D82   D(9,10,11,12)          65.7762         estimate D2E/DX2                !
 ! D83   D(9,10,11,26)         -56.7303         estimate D2E/DX2                !
 ! D84   D(9,10,11,29)        -175.894          estimate D2E/DX2                !
 ! D85   D(43,10,11,12)        -59.4524         estimate D2E/DX2                !
 ! D86   D(43,10,11,26)        178.0412         estimate D2E/DX2                !
 ! D87   D(43,10,11,29)         58.8775         estimate D2E/DX2                !
 ! D88   D(44,10,11,12)       -169.0006         estimate D2E/DX2                !
 ! D89   D(44,10,11,26)         68.493          estimate D2E/DX2                !
 ! D90   D(44,10,11,29)        -50.6707         estimate D2E/DX2                !
 ! D91   D(10,11,12,13)         70.0517         estimate D2E/DX2                !
 ! D92   D(10,11,12,18)       -106.7242         estimate D2E/DX2                !
 ! D93   D(26,11,12,13)       -169.557          estimate D2E/DX2                !
 ! D94   D(26,11,12,18)         13.6672         estimate D2E/DX2                !
 ! D95   D(29,11,12,13)        -46.7634         estimate D2E/DX2                !
 ! D96   D(29,11,12,18)        136.4607         estimate D2E/DX2                !
 ! D97   D(10,11,26,27)       -135.7901         estimate D2E/DX2                !
 ! D98   D(12,11,26,27)        102.4849         estimate D2E/DX2                !
 ! D99   D(29,11,26,27)        -19.3151         estimate D2E/DX2                !
 ! D100  D(10,11,29,28)        137.535          estimate D2E/DX2                !
 ! D101  D(12,11,29,28)       -103.2333         estimate D2E/DX2                !
 ! D102  D(26,11,29,28)         20.1097         estimate D2E/DX2                !
 ! D103  D(11,12,13,14)       -173.9067         estimate D2E/DX2                !
 ! D104  D(11,12,13,45)          6.0484         estimate D2E/DX2                !
 ! D105  D(18,12,13,14)          2.958          estimate D2E/DX2                !
 ! D106  D(18,12,13,45)       -177.0868         estimate D2E/DX2                !
 ! D107  D(11,12,18,17)        173.6765         estimate D2E/DX2                !
 ! D108  D(11,12,18,48)         -6.2967         estimate D2E/DX2                !
 ! D109  D(13,12,18,17)         -3.1434         estimate D2E/DX2                !
 ! D110  D(13,12,18,48)        176.8834         estimate D2E/DX2                !
 ! D111  D(12,13,14,15)         -0.5666         estimate D2E/DX2                !
 ! D112  D(12,13,14,46)        179.4057         estimate D2E/DX2                !
 ! D113  D(45,13,14,15)        179.478          estimate D2E/DX2                !
 ! D114  D(45,13,14,46)         -0.5498         estimate D2E/DX2                !
 ! D115  D(13,14,15,16)        176.9808         estimate D2E/DX2                !
 ! D116  D(13,14,15,17)         -1.6408         estimate D2E/DX2                !
 ! D117  D(46,14,15,16)         -2.9915         estimate D2E/DX2                !
 ! D118  D(46,14,15,17)        178.3868         estimate D2E/DX2                !
 ! D119  D(14,15,17,18)          1.4353         estimate D2E/DX2                !
 ! D120  D(14,15,17,47)       -178.5962         estimate D2E/DX2                !
 ! D121  D(16,15,17,18)       -177.188          estimate D2E/DX2                !
 ! D122  D(16,15,17,47)          2.7805         estimate D2E/DX2                !
 ! D123  D(15,17,18,12)          0.9951         estimate D2E/DX2                !
 ! D124  D(15,17,18,48)       -179.0316         estimate D2E/DX2                !
 ! D125  D(47,17,18,12)       -178.9733         estimate D2E/DX2                !
 ! D126  D(47,17,18,48)          1.0            estimate D2E/DX2                !
 ! D127  D(4,19,20,21)        -175.4893         estimate D2E/DX2                !
 ! D128  D(4,19,20,49)           4.4652         estimate D2E/DX2                !
 ! D129  D(25,19,20,21)          3.2064         estimate D2E/DX2                !
 ! D130  D(25,19,20,49)       -176.8392         estimate D2E/DX2                !
 ! D131  D(4,19,25,24)         175.2018         estimate D2E/DX2                !
 ! D132  D(4,19,25,52)          -4.7533         estimate D2E/DX2                !
 ! D133  D(20,19,25,24)         -3.4565         estimate D2E/DX2                !
 ! D134  D(20,19,25,52)        176.5884         estimate D2E/DX2                !
 ! D135  D(19,20,21,22)         -0.8449         estimate D2E/DX2                !
 ! D136  D(19,20,21,50)        179.1285         estimate D2E/DX2                !
 ! D137  D(49,20,21,22)        179.2003         estimate D2E/DX2                !
 ! D138  D(49,20,21,50)         -0.8263         estimate D2E/DX2                !
 ! D139  D(20,21,22,23)        176.2934         estimate D2E/DX2                !
 ! D140  D(20,21,22,24)         -1.2834         estimate D2E/DX2                !
 ! D141  D(50,21,22,23)         -3.68           estimate D2E/DX2                !
 ! D142  D(50,21,22,24)        178.7433         estimate D2E/DX2                !
 ! D143  D(21,22,24,25)          1.0009         estimate D2E/DX2                !
 ! D144  D(21,22,24,51)       -179.0453         estimate D2E/DX2                !
 ! D145  D(23,22,24,25)       -176.5283         estimate D2E/DX2                !
 ! D146  D(23,22,24,51)          3.4255         estimate D2E/DX2                !
 ! D147  D(22,24,25,19)          1.4131         estimate D2E/DX2                !
 ! D148  D(22,24,25,52)       -178.6318         estimate D2E/DX2                !
 ! D149  D(51,24,25,19)       -178.5408         estimate D2E/DX2                !
 ! D150  D(51,24,25,52)          1.4143         estimate D2E/DX2                !
 ! D151  D(11,26,27,28)         11.2789         estimate D2E/DX2                !
 ! D152  D(11,26,27,53)        136.546          estimate D2E/DX2                !
 ! D153  D(11,26,27,54)       -114.0252         estimate D2E/DX2                !
 ! D154  D(26,27,28,29)          1.1481         estimate D2E/DX2                !
 ! D155  D(26,27,28,55)        126.385          estimate D2E/DX2                !
 ! D156  D(26,27,28,56)       -124.1299         estimate D2E/DX2                !
 ! D157  D(53,27,28,29)       -124.0752         estimate D2E/DX2                !
 ! D158  D(53,27,28,55)          1.1617         estimate D2E/DX2                !
 ! D159  D(53,27,28,56)        110.6467         estimate D2E/DX2                !
 ! D160  D(54,27,28,29)        126.4188         estimate D2E/DX2                !
 ! D161  D(54,27,28,55)       -108.3443         estimate D2E/DX2                !
 ! D162  D(54,27,28,56)          1.1408         estimate D2E/DX2                !
 ! D163  D(27,28,29,11)        -12.9227         estimate D2E/DX2                !
 ! D164  D(55,28,29,11)       -138.1556         estimate D2E/DX2                !
 ! D165  D(56,28,29,11)        112.3103         estimate D2E/DX2                !
 --------------------------------------------------------------------------------
 Trust Radius=3.00D-01 FncErr=1.00D-07 GrdErr=1.00D-07 EigMax=2.50D+02 EigMin=1.00D-04
 Number of steps in this run=    336 maximum allowed number of steps=    336.
 GradGradGradGradGradGradGradGradGradGradGradGradGradGradGradGradGradGrad

 Symmetry turned off by external request.
 Stoichiometry    C23H27ClFNOS2
 Framework group  C1[X(C23H27ClFNOS2)]
 Deg. of freedom   162
 Full point group                 C1      NOp   1
                          Input orientation:                          
 ---------------------------------------------------------------------
 Center     Atomic      Atomic             Coordinates (Angstroms)
 Number     Number       Type             X           Y           Z
 ---------------------------------------------------------------------
      1          7           0       63.265000   38.766000   -0.214000
      2          6           0       63.012000   39.892000   -1.133000
      3          6           0       62.672000   39.414000   -2.550000
      4          6           0       63.697000   38.401000   -3.095000
      5          8           0       64.981000   39.019000   -3.106000
      6          6           0       63.768000   37.224000   -2.108000
      7          6           0       64.169000   37.711000   -0.712000
      8          6           0       63.787000   39.224000    1.090000
      9          6           0       62.760000   40.033000    1.890000
     10          6           0       63.515000   41.115000    2.679000
     11          6           0       62.869000   41.417000    4.046000
     12          6           0       62.964000   40.279000    4.905000
     13          6           0       64.213000   39.889000    5.419000
     14          6           0       64.357000   38.711000    6.157000
     15          6           0       63.244000   37.907000    6.403000
     16          9           0       63.381000   36.724000    7.069000
     17          6           0       61.990000   38.311000    5.935000
     18          6           0       61.842000   39.492000    5.200000
     19          6           0       63.426000   38.045000   -4.454000
     20          6           0       63.206000   39.061000   -5.405000
     21          6           0       62.847000   38.760000   -6.720000
     22          6           0       62.717000   37.430000   -7.118000
     23         17           0       62.172000   37.073000   -8.741000
     24          6           0       62.976000   36.402000   -6.195000
     25          6           0       63.343000   36.706000   -4.874000
     26         16           0       61.138000   41.902000    3.760000
     27          6           0       61.082000   43.324000    4.892000
     28          6           0       62.445000   43.775000    5.427000
     29         16           0       63.820000   42.802000    4.780000
     30          1           0       62.221000   40.569000   -0.734000
     31          1           0       63.867000   40.606000   -1.142000
     32          1           0       61.637000   39.001000   -2.596000
     33          1           0       62.552000   40.276000   -3.246000
     34          1           0       65.613000   38.394000   -3.442000
     35          1           0       62.815000   36.645000   -2.085000
     36          1           0       64.445000   36.417000   -2.474000
     37          1           0       65.232000   38.045000   -0.690000
     38          1           0       64.236000   36.862000    0.008000
     39          1           0       64.173000   38.366000    1.688000
     40          1           0       64.734000   39.797000    0.961000
     41          1           0       61.949000   40.453000    1.249000
     42          1           0       62.119000   39.392000    2.541000
     43          1           0       64.590000   40.846000    2.796000
     44          1           0       63.625000   42.045000    2.075000
     45          1           0       65.099000   40.520000    5.239000
     46          1           0       65.346000   38.416000    6.544000
     47          1           0       61.104000   37.689000    6.148000
     48          1           0       60.841000   39.802000    4.853000
     49          1           0       63.317000   40.118000   -5.112000
     50          1           0       62.666000   39.572000   -7.443000
     51          1           0       62.890000   35.348000   -6.509000
     52          1           0       63.566000   35.891000   -4.164000
     53          1           0       60.554000   44.179000    4.410000
     54          1           0       60.384000   43.117000    5.737000
     55          1           0       62.605000   44.862000    5.238000
     56          1           0       62.451000   43.779000    6.542000
 ---------------------------------------------------------------------
 Rotational constants (GHZ):           0.2889125           0.0403734           0.0375130
 ONIOM: Cut between C /H    11 and C    10 factor= 0.723886 0.723886
 ONIOM: Cut between Cl/H    23 and C    22 factor= 0.643454 0.643454
 ONIOM: saving gridpoint 17
 ONIOM: generating point  3 -- low level on real system.
 Standard basis: STO-3G (5D, 7F)
   184 basis functions,   552 primitive gaussians,   184 cartesian basis functions
   119 alpha electrons      119 beta electrons
       nuclear repulsion energy      3110.5989597919 Hartrees.
 NAtoms=   56 NActive=   56 NUniq=   56 SFac= 1.00D+00 NAtFMM=   60 NAOKFM=F Big=F
 Integral buffers will be    131072 words long.
 Raffenetti 1 integral format.
 Two-electron integral symmetry is turned off.
 External calculation of energy and first derivatives.
 Running external command "GauAPIs -m gfn2-xtb -n 4 R"
         input file       "/tmp/Gau-19461.EIn"
         output file      "/tmp/Gau-19461.EOu"
         message file     "/tmp/Gau-19461.EMs"
         fchk file        "/tmp/Gau-19461.EFC"
         mat. el file     "/tmp/Gau-19461.EUF"
Using xtb-python
This xtb task will use 4 cores 
------------------------------------------------------------
  cycle        total energy    energy error   density error
------------------------------------------------------------
      1     -85.58635997579  -8.6585747E+01   1.4444957E-01
      2     -85.71608535477  -1.2972538E-01   7.7354359E-02
      3     -85.70954531085   6.5400439E-03   3.2156313E-02
      4     -85.73806439804  -2.8519087E-02   1.0825508E-02
      5     -85.73954760372  -1.4832057E-03   4.2273993E-03
      6     -85.73983089204  -2.8328832E-04   1.9957640E-03
      7     -85.73995129070  -1.2039866E-04   9.5040092E-04
      8     -85.73996426367  -1.2972973E-05   5.5379276E-04
      9     -85.73996813207  -3.8683985E-06   3.7770173E-04
     10     -85.73997077190  -2.6398352E-06   2.3092284E-04
     11     -85.73997194563  -1.1737306E-06   1.5728042E-04
     12     -85.73997261193  -6.6629626E-07   6.6239857E-05
     13     -85.73997269737  -8.5435914E-08   3.0077760E-05
     14     -85.73997271143  -1.4064611E-08   1.5182541E-05
------------------------------------------------------------

 total:                                   0.395 sec
xtb calculation finished
 Recovered energy= -85.7399727114     dipole=      0.000000000000      0.000000000000      0.000000000000
 Energy=    -85.7399727     NIter=   0.
 Dipole moment=       0.000000       0.000000       0.000000
 Cartesian Forces:  Max     0.059057960 RMS     0.010484270
 SvSCFP did not find density file   528.
 ONIOM: saving gridpoint  3
 ONIOM: restoring gridpoint 17
 ONIOM: generating point  2 -- high level on model system.
 Standard basis: STO-3G (5D, 7F)
   101 basis functions,   303 primitive gaussians,   101 cartesian basis functions
    60 alpha electrons       60 beta electrons
       nuclear repulsion energy      1119.5017841733 Hartrees.
 NAtoms=   56 NActive=   37 NUniq=   37 SFac= 1.00D+00 NAtFMM=   60 NAOKFM=F Big=F
 Integral buffers will be    131072 words long.
 Raffenetti 1 integral format.
 Two-electron integral symmetry is turned off.
 External calculation of energy and first derivatives.
 Running external command "GauAPIs -m AIQM1 M"
         input file       "/tmp/Gau-19461.EIn"
         output file      "/tmp/Gau-19461.EOu"
         message file     "/tmp/Gau-19461.EMs"
         fchk file        "/tmp/Gau-19461.EFC"
         mat. el file     "/tmp/Gau-19461.EUF"
Using mlatom
mlatom finished
 Recovered energy= -675.265486384     dipole=      0.000000000000      0.000000000000      0.000000000000
 Energy=    -675.265486     NIter=   0.
 Dipole moment=       0.000000       0.000000       0.000000
 Cartesian Forces:  Max     0.104952477 RMS     0.015596984
 SvSCFP did not find density file   528.
 ONIOM: saving gridpoint  2
 ONIOM: restoring gridpoint 17
 ONIOM: generating point  1 -- low level on model system.
 Standard basis: STO-3G (5D, 7F)
   101 basis functions,   303 primitive gaussians,   101 cartesian basis functions
    60 alpha electrons       60 beta electrons
       nuclear repulsion energy      1119.5017841733 Hartrees.
 NAtoms=   56 NActive=   37 NUniq=   37 SFac= 1.00D+00 NAtFMM=   60 NAOKFM=F Big=F
 Integral buffers will be    131072 words long.
 Raffenetti 1 integral format.
 Two-electron integral symmetry is turned off.
 External calculation of energy and first derivatives.
 Running external command "GauAPIs -m gfn2-xtb -n 4 M"
         input file       "/tmp/Gau-19461.EIn"
         output file      "/tmp/Gau-19461.EOu"
         message file     "/tmp/Gau-19461.EMs"
         fchk file        "/tmp/Gau-19461.EFC"
         mat. el file     "/tmp/Gau-19461.EUF"
Using xtb-python
This xtb task will use 4 cores 
------------------------------------------------------------
  cycle        total energy    energy error   density error
------------------------------------------------------------
      1     -47.54126609644  -4.8166589E+01   1.2976614E-01
      2     -47.62584752588  -8.4581429E-02   6.5367107E-02
      3     -47.62813509560  -2.2875697E-03   2.4431533E-02
      4     -47.63300493673  -4.8698411E-03   1.1308364E-02
      5     -47.63529783968  -2.2929029E-03   3.6355420E-03
      6     -47.63549802849  -2.0018881E-04   1.2059124E-03
      7     -47.63551515561  -1.7127119E-05   5.4866481E-04
      8     -47.63551606596  -9.1035390E-07   2.3681166E-04
      9     -47.63551676734  -7.0138324E-07   5.5293369E-05
     10     -47.63551677977  -1.2422824E-08   2.7420923E-05
     11     -47.63551678613  -6.3634715E-09   1.2116867E-05
------------------------------------------------------------

 total:                                   0.070 sec
xtb calculation finished
 Recovered energy= -47.6355167861     dipole=      0.000000000000      0.000000000000      0.000000000000
 Energy=    -47.6355168     NIter=   0.
 Dipole moment=       0.000000       0.000000       0.000000
 Cartesian Forces:  Max     0.060301290 RMS     0.008431838
 SvSCFP did not find density file   528.
 ONIOM: saving gridpoint  1
 ONIOM: restoring gridpoint  3
 ONIOM: calculating energy.
 ONIOM: gridpoint  1 method:  low   system:  model energy:   -47.635516786130
 ONIOM: gridpoint  2 method:  high  system:  model energy:  -675.265486383900
 ONIOM: gridpoint  3 method:  low   system:  real  energy:   -85.739972711430
 ONIOM: extrapolated energy =    -713.369942309200
 ONIOM: calculating first derivatives.
 ONIOM: calculating electric field derivatives.
 ONIOM: Integrating ONIOM file  4 number   619
 ONIOM: Dipole        = 0.00000000D+00 0.00000000D+00 0.00000000D+00
 ONIOM: Dipole moment (Debye):
    X=     0.0000    Y=     0.0000    Z=     0.0000  Tot=     0.0000
 ONIOM: Integrating ONIOM file  5 number   695
 -------------------------------------------------------------------
 Center     Atomic             Integrated Forces (Hartrees/Bohr)
 Number     Number              X              Y              Z
 -------------------------------------------------------------------
      1        7           0.012673353   -0.014323909    0.028753173
      2        6          -0.000000000   -0.000000000   -0.000000000
      3        6           0.017864750    0.021326626    0.001321266
      4        6          -0.000000000   -0.000000000   -0.000000000
      5        8          -0.028342596    0.023433579   -0.009167273
      6        6          -0.000000000   -0.000000000   -0.000000000
      7        6           0.018908528    0.012746588    0.092805626
      8        6          -0.000000000   -0.000000000   -0.000000000
      9        6           0.006413288    0.047374274    0.026774724
     10        6          -0.000806281   -0.005433293   -0.000339452
     11        6          -0.011174514   -0.039564284    0.000740933
     12        6          -0.000000000   -0.000000000   -0.000000000
     13        6           0.006331421    0.002482391    0.001301991
     14        6          -0.000000000   -0.000000000   -0.000000000
     15        6           0.002258237   -0.007676157   -0.007616843
     16        9          -0.000000000   -0.000000000   -0.000000000
     17        6          -0.014646903   -0.001534536    0.001594422
     18        6          -0.000000000   -0.000000000   -0.000000000
     19        6           0.009364988    0.009720375   -0.010161824
     20        6           0.011166335   -0.003957006   -0.002601220
     21        6           0.006510766    0.025548717   -0.029575604
     22        6          -0.003110623   -0.006634446   -0.002799869
     23       17           0.002300373   -0.046732121    0.033227576
     24        6          -0.011865837   -0.001629657    0.003198630
     25        6           0.001298637   -0.007561391    0.003458045
     26       16          -0.000000000   -0.000000000   -0.000000000
     27        6           0.005290500    0.001651681    0.000871007
     28        6          -0.000000000   -0.000000000   -0.000000000
     29       16          -0.004251354    0.008884757   -0.008556521
     30        1           0.003847374    0.010229686    0.002026369
     31        1          -0.001838175    0.013247882   -0.005775479
     32        1           0.008755511    0.002670140   -0.011000481
     33        1          -0.006320257   -0.004397794    0.002649989
     34        1          -0.019800270   -0.017414190   -0.044651187
     35        1           0.004115324   -0.010300287    0.006869470
     36        1           0.002214281    0.010338298    0.008510634
     37        1          -0.025357275   -0.020453060   -0.059057960
     38        1          -0.001820229    0.007836265   -0.013516293
     39        1          -0.000881044   -0.002250537   -0.005722705
     40        1          -0.009983045   -0.009582490   -0.020577654
     41        1           0.002560222    0.004787356    0.000941465
     42        1           0.009446600    0.002602684    0.021494875
     43        1           0.000511812   -0.004101890    0.013047657
     44        1          -0.002431607   -0.012380646   -0.014623562
     45        1           0.004439848    0.000116134    0.009513221
     46        1          -0.000000000   -0.000000000   -0.000000000
     47        1           0.001741503   -0.000739182   -0.001092654
     48        1          -0.000000000   -0.000000000   -0.000000000
     49        1          -0.003410026    0.001815695   -0.012515041
     50        1           0.001466764   -0.006030818    0.008403753
     51        1          -0.002933085    0.019196877   -0.003889794
     52        1           0.003034507   -0.016723581   -0.004393400
     53        1          -0.019330838    0.018672804    0.014248723
     54        1          -0.000000000   -0.000000000   -0.000000000
     55        1          -0.009391836    0.020553341    0.018490887
     56        1          -0.000000000   -0.000000000   -0.000000000
 -------------------------------------------------------------------
 Integrated Cartesian Forces:  Max     0.092805626 RMS     0.014751335

 GradGradGradGradGradGradGradGradGradGradGradGradGradGradGradGradGradGrad
 Berny optimization.
 FormGI is forming the generalized inverse of G from B-inverse, IUseBI=4.
 Internal  Forces:  Max     0.168849807 RMS     0.034856495
 Search for a local minimum.
 Step number   1 out of a maximum of  336
 All quantities printed in internal units (Hartrees-Bohrs-Radians)
 Mixed Optimization -- RFO/linear search
 Second derivative matrix not updated -- first step.
 ITU=  0
     Eigenvalues ---    0.00230   0.00273   0.00323   0.00333   0.00384
     Eigenvalues ---    0.00515   0.00571   0.00668   0.00825   0.01361
     Eigenvalues ---    0.01682   0.01706   0.01829   0.01872   0.01915
     Eigenvalues ---    0.02005   0.02019   0.02024   0.02035   0.02039
     Eigenvalues ---    0.02047   0.02057   0.02070   0.02083   0.02094
     Eigenvalues ---    0.02101   0.02108   0.02124   0.02132   0.02135
     Eigenvalues ---    0.02142   0.02153   0.03133   0.03167   0.03228
     Eigenvalues ---    0.03481   0.03595   0.03625   0.03745   0.03872
     Eigenvalues ---    0.04501   0.04546   0.04592   0.04694   0.04821
     Eigenvalues ---    0.05212   0.05583   0.05647   0.05711   0.06016
     Eigenvalues ---    0.06476   0.07175   0.07333   0.07696   0.07951
     Eigenvalues ---    0.08136   0.08335   0.08598   0.08610   0.09173
     Eigenvalues ---    0.09525   0.09601   0.09687   0.09754   0.10143
     Eigenvalues ---    0.11192   0.11610   0.11768   0.11924   0.12415
     Eigenvalues ---    0.12708   0.13059   0.13179   0.13907   0.15497
     Eigenvalues ---    0.15816   0.16000   0.16000   0.16000   0.16000
     Eigenvalues ---    0.16000   0.16000   0.16000   0.16000   0.16000
     Eigenvalues ---    0.16228   0.18537   0.19468   0.19726   0.21463
     Eigenvalues ---    0.21638   0.21669   0.21987   0.21991   0.21993
     Eigenvalues ---    0.22953   0.22958   0.23553   0.23987   0.23993
     Eigenvalues ---    0.24391   0.24629   0.24959   0.24976   0.24992
     Eigenvalues ---    0.24993   0.25614   0.27407   0.27747   0.27843
     Eigenvalues ---    0.28358   0.28695   0.28760   0.29170   0.29174
     Eigenvalues ---    0.30595   0.31968   0.31994   0.32037   0.32041
     Eigenvalues ---    0.32045   0.32055   0.32062   0.32074   0.32077
     Eigenvalues ---    0.32092   0.32098   0.32127   0.32133   0.32140
     Eigenvalues ---    0.32142   0.32144   0.32148   0.32185   0.33259
     Eigenvalues ---    0.33281   0.33321   0.33338   0.33405   0.33411
     Eigenvalues ---    0.33437   0.33441   0.33627   0.34390   0.34871
     Eigenvalues ---    0.40881   0.40884   0.41138   0.41385   0.41501
     Eigenvalues ---    0.41712   0.41876   0.44403   0.44763   0.45104
     Eigenvalues ---    0.45675   0.45732   0.45924   0.46219   0.46238
     Eigenvalues ---    0.52052   0.57628
 RFO step:  Lambda=-5.63130558D-01 EMin= 2.30000000D-03
 Linear search not attempted -- first point.
 Maximum step size (   0.300) exceeded in Quadratic search.
    -- Step size scaled by   0.446
 Iteration  1 RMS(Cart)=  0.20811888 RMS(Int)=  0.01264497
 Iteration  2 RMS(Cart)=  0.21425173 RMS(Int)=  0.00612361
 Iteration  3 RMS(Cart)=  0.02947697 RMS(Int)=  0.00026315
 Iteration  4 RMS(Cart)=  0.00026308 RMS(Int)=  0.00025263
 Iteration  5 RMS(Cart)=  0.00000009 RMS(Int)=  0.00025263
 Variable       Old X    -DE/DX   Delta X   Delta X   Delta X     New X
                                 (Linear)    (Quad)   (Total)
    R1        2.78787   0.09203   0.00000   0.04421   0.04428   2.83215
    R2        2.78902  -0.00425   0.00000  -0.00202  -0.00198   2.78704
    R3        2.79185   0.02111   0.00000   0.01033   0.01033   2.80219
    R4        2.89811   0.08427   0.00000   0.04558   0.04551   2.94362
    R5        2.10703   0.00310   0.00000   0.00157   0.00157   2.10860
    R6        2.10508   0.00791   0.00000   0.00399   0.00399   2.10906
    R7        2.91154   0.03104   0.00000   0.01604   0.01601   2.92755
    R8        2.10763  -0.00991   0.00000  -0.00501  -0.00501   2.10262
    R9        2.10589  -0.00395   0.00000  -0.00199  -0.00199   2.10389
   R10        2.69291  -0.03863   0.00000  -0.01759  -0.01759   2.67532
   R11        2.90584  -0.01895   0.00000  -0.00886  -0.00894   2.89691
   R12        2.70373   0.02676   0.00000   0.01229   0.01229   2.71602
   R13        1.79568   0.01536   0.00000   0.00602   0.00602   1.80170
   R14        2.89491  -0.01459   0.00000  -0.00925  -0.00918   2.88573
   R15        2.10768   0.00168   0.00000   0.00085   0.00085   2.10853
   R16        2.10731  -0.00819   0.00000  -0.00414  -0.00414   2.10317
   R17        2.10601  -0.03137   0.00000  -0.01583  -0.01583   2.09018
   R18        2.10744  -0.01471   0.00000  -0.00743  -0.00743   2.10001
   R19        2.89641   0.05231   0.00000   0.02731   0.02731   2.92372
   R20        2.10665  -0.00115   0.00000  -0.00058  -0.00058   2.10607
   R21        2.10582  -0.01101   0.00000  -0.00556  -0.00556   2.10026
   R22        2.90506  -0.04094   0.00000  -0.02148  -0.02148   2.88358
   R23        2.10855  -0.00085   0.00000  -0.00043  -0.00043   2.10812
   R24        2.10902   0.00531   0.00000   0.00269   0.00269   2.11171
   R25        2.91362   0.03042   0.00000   0.01603   0.01603   2.92965
   R26        2.10573   0.00372   0.00000   0.00188   0.00188   2.10761
   R27        2.10585  -0.00323   0.00000  -0.00163  -0.00163   2.10422
   R28        2.70036   0.01449   0.00000   0.00664   0.00664   2.70699
   R29        3.43981   0.01432   0.00000   0.00785   0.00790   3.44771
   R30        3.46464   0.01733   0.00000   0.00965   0.00970   3.47434
   R31        2.65659   0.01281   0.00000   0.00580   0.00580   2.66240
   R32        2.64918   0.00948   0.00000   0.00413   0.00414   2.65331
   R33        2.64093   0.01299   0.00000   0.00583   0.00583   2.64676
   R34        2.08347   0.00094   0.00000   0.00047   0.00047   2.08393
   R35        2.63595   0.01000   0.00000   0.00437   0.00437   2.64032
   R36        2.08292  -0.00048   0.00000  -0.00024  -0.00024   2.08268
   R37        2.57850   0.00073   0.00000   0.00030   0.00030   2.57880
   R38        2.64208  -0.00123   0.00000  -0.00067  -0.00068   2.64139
   R39        2.64352  -0.00549   0.00000  -0.00256  -0.00257   2.64095
   R40        2.08492  -0.00007   0.00000  -0.00003  -0.00003   2.08488
   R41        2.08600   0.00044   0.00000   0.00022   0.00022   2.08621
   R42        2.66247   0.03315   0.00000   0.01543   0.01544   2.67792
   R43        2.65653   0.01025   0.00000   0.00427   0.00427   2.66081
   R44        2.63798   0.04609   0.00000   0.02097   0.02098   2.65897
   R45        2.08335  -0.00148   0.00000  -0.00074  -0.00074   2.08261
   R46        2.63493   0.03702   0.00000   0.01631   0.01631   2.65124
   R47        2.08285  -0.00947   0.00000  -0.00471  -0.00471   2.07814
   R48        3.30492  -0.02180   0.00000  -0.01119  -0.01119   3.29372
   R49        2.65625  -0.05261   0.00000  -0.02394  -0.02395   2.63231
   R50        2.65380  -0.04676   0.00000  -0.02156  -0.02157   2.63223
   R51        2.08462  -0.01740   0.00000  -0.00866  -0.00866   2.07596
   R52        2.08561   0.00947   0.00000   0.00472   0.00472   2.09032
   R53        3.43631   0.02474   0.00000   0.01372   0.01369   3.45001
   R54        2.89529  -0.00064   0.00000  -0.00029  -0.00035   2.89494
   R55        2.10612   0.01670   0.00000   0.00843   0.00843   2.11455
   R56        2.10777  -0.00082   0.00000  -0.00041  -0.00041   2.10735
   R57        3.40988   0.01949   0.00000   0.01053   0.01051   3.42039
   R58        2.10676   0.01471   0.00000   0.00743   0.00743   2.11419
   R59        2.10709  -0.00005   0.00000  -0.00003  -0.00003   2.10706
    A1        2.02688  -0.02539   0.00000  -0.01558  -0.01551   2.01137
    A2        1.95391   0.14015   0.00000   0.08877   0.08897   2.04288
    A3        1.87864  -0.06953   0.00000  -0.04002  -0.04013   1.83852
    A4        1.95594  -0.03065   0.00000  -0.01592  -0.01610   1.93984
    A5        1.94139  -0.00299   0.00000  -0.00213  -0.00204   1.93935
    A6        1.94187   0.03146   0.00000   0.01812   0.01810   1.95996
    A7        1.94186   0.00738   0.00000   0.00088   0.00077   1.94263
    A8        1.94171   0.00813   0.00000   0.00650   0.00667   1.94838
    A9        1.72968  -0.00942   0.00000  -0.00546  -0.00548   1.72420
   A10        1.96521   0.02704   0.00000   0.01787   0.01779   1.98300
   A11        1.93827  -0.03763   0.00000  -0.02366  -0.02358   1.91469
   A12        1.93890   0.02752   0.00000   0.01748   0.01753   1.95643
   A13        1.93833   0.00038   0.00000  -0.00279  -0.00284   1.93549
   A14        1.93830  -0.02247   0.00000  -0.01163  -0.01182   1.92649
   A15        1.73224   0.00106   0.00000  -0.00005   0.00003   1.73228
   A16        1.89339  -0.01450   0.00000  -0.00700  -0.00678   1.88662
   A17        1.88276  -0.03464   0.00000  -0.02101  -0.02070   1.86206
   A18        1.95366   0.10799   0.00000   0.06837   0.06814   2.02180
   A19        1.87056   0.04930   0.00000   0.02998   0.02966   1.90023
   A20        1.84548  -0.02572   0.00000  -0.01590  -0.01620   1.82928
   A21        2.01304  -0.08111   0.00000  -0.05341  -0.05272   1.96032
   A22        1.89311  -0.05517   0.00000  -0.03405  -0.03405   1.85906
   A23        1.93229   0.06261   0.00000   0.03639   0.03627   1.96856
   A24        1.95103  -0.01388   0.00000  -0.00702  -0.00702   1.94401
   A25        1.95119  -0.01850   0.00000  -0.01035  -0.01011   1.94108
   A26        1.94970  -0.03072   0.00000  -0.01949  -0.01933   1.93037
   A27        1.95005  -0.01898   0.00000  -0.00982  -0.00996   1.94009
   A28        1.72119   0.01051   0.00000   0.00499   0.00481   1.72599
   A29        1.95454   0.01274   0.00000   0.00609   0.00627   1.96081
   A30        1.94265   0.02411   0.00000   0.01828   0.01804   1.96068
   A31        1.94243   0.00302   0.00000   0.00175   0.00182   1.94425
   A32        1.94222  -0.01592   0.00000  -0.01048  -0.01061   1.93161
   A33        1.94126  -0.03905   0.00000  -0.02514  -0.02530   1.91595
   A34        1.72957   0.01432   0.00000   0.00933   0.00913   1.73870
   A35        1.96880   0.06396   0.00000   0.03679   0.03615   2.00495
   A36        1.93608  -0.06710   0.00000  -0.04542  -0.04516   1.89092
   A37        1.93638   0.00496   0.00000   0.00808   0.00691   1.94329
   A38        1.93720  -0.04144   0.00000  -0.02793  -0.02756   1.90964
   A39        1.93739   0.02032   0.00000   0.01803   0.01718   1.95458
   A40        1.73513   0.01042   0.00000   0.00525   0.00551   1.74065
   A41        1.88631   0.10316   0.00000   0.05951   0.05921   1.94553
   A42        1.96692  -0.02918   0.00000  -0.01330  -0.01466   1.95227
   A43        1.96725  -0.03205   0.00000  -0.02034  -0.01953   1.94771
   A44        1.96804   0.01372   0.00000   0.01432   0.01373   1.98177
   A45        1.96811  -0.09481   0.00000  -0.06179  -0.06123   1.90688
   A46        1.70503   0.02419   0.00000   0.01292   0.01298   1.71801
   A47        1.96832  -0.16006   0.00000  -0.09256  -0.09232   1.87600
   A48        1.93668   0.03591   0.00000   0.01723   0.01643   1.95312
   A49        1.93658   0.05967   0.00000   0.03580   0.03668   1.97326
   A50        1.93735   0.03584   0.00000   0.01748   0.01656   1.95391
   A51        1.93740   0.07399   0.00000   0.04539   0.04595   1.98335
   A52        1.73468  -0.02289   0.00000  -0.01005  -0.01091   1.72376
   A53        1.92744  -0.06914   0.00000  -0.04202  -0.04196   1.88547
   A54        1.88738   0.03831   0.00000   0.02275   0.02239   1.90977
   A55        1.86042   0.03576   0.00000   0.02342   0.02359   1.88401
   A56        1.94966  -0.01268   0.00000  -0.01055  -0.01047   1.93919
   A57        1.90335   0.03635   0.00000   0.02257   0.02283   1.92618
   A58        1.93360  -0.02760   0.00000  -0.01536  -0.01556   1.91804
   A59        2.09415   0.06590   0.00000   0.03609   0.03606   2.13021
   A60        2.11808  -0.06288   0.00000  -0.03464  -0.03464   2.08343
   A61        2.06963  -0.00362   0.00000  -0.00191  -0.00191   2.06772
   A62        2.11586  -0.01352   0.00000  -0.00732  -0.00732   2.10854
   A63        2.08921   0.01561   0.00000   0.00913   0.00912   2.09834
   A64        2.07811  -0.00210   0.00000  -0.00180  -0.00181   2.07631
   A65        2.09067   0.00882   0.00000   0.00527   0.00527   2.09593
   A66        2.09840  -0.00222   0.00000  -0.00128  -0.00128   2.09712
   A67        2.09412  -0.00661   0.00000  -0.00399  -0.00399   2.09013
   A68        2.10098   0.00204   0.00000   0.00120   0.00120   2.10219
   A69        2.08297   0.00130   0.00000   0.00057   0.00056   2.08353
   A70        2.09898  -0.00331   0.00000  -0.00174  -0.00173   2.09724
   A71        2.11147  -0.00826   0.00000  -0.00511  -0.00512   2.10635
   A72        2.08603   0.00411   0.00000   0.00254   0.00254   2.08858
   A73        2.08568   0.00415   0.00000   0.00257   0.00257   2.08825
   A74        2.09420   0.01489   0.00000   0.00822   0.00822   2.10242
   A75        2.09667  -0.00748   0.00000  -0.00413  -0.00414   2.09253
   A76        2.09231  -0.00742   0.00000  -0.00409  -0.00410   2.08821
   A77        2.08436   0.16885   0.00000   0.09242   0.09242   2.17677
   A78        2.13172  -0.16080   0.00000  -0.08854  -0.08855   2.04316
   A79        2.06688  -0.00796   0.00000  -0.00382  -0.00380   2.06308
   A80        2.11824  -0.01979   0.00000  -0.00916  -0.00913   2.10911
   A81        2.09010   0.02339   0.00000   0.01291   0.01289   2.10299
   A82        2.07485  -0.00360   0.00000  -0.00375  -0.00376   2.07109
   A83        2.09270  -0.01466   0.00000  -0.00679  -0.00679   2.08591
   A84        2.09590   0.00437   0.00000   0.00157   0.00156   2.09746
   A85        2.09459   0.01029   0.00000   0.00523   0.00522   2.09981
   A86        2.08134   0.07875   0.00000   0.04351   0.04352   2.12486
   A87        2.08631   0.01091   0.00000   0.00544   0.00542   2.09174
   A88        2.11473  -0.08968   0.00000  -0.04897  -0.04896   2.06578
   A89        2.10310   0.01366   0.00000   0.00565   0.00563   2.10872
   A90        2.09151  -0.01848   0.00000  -0.01001  -0.01000   2.08150
   A91        2.08858   0.00481   0.00000   0.00436   0.00437   2.09296
   A92        2.09747   0.01743   0.00000   0.00836   0.00834   2.10581
   A93        2.09352   0.00632   0.00000   0.00510   0.00511   2.09863
   A94        2.09219  -0.02375   0.00000  -0.01346  -0.01345   2.07874
   A95        1.71109   0.01918   0.00000   0.01018   0.01031   1.72140
   A96        2.00443  -0.00621   0.00000  -0.00334  -0.00340   2.00103
   A97        1.92333   0.01588   0.00000   0.01068   0.01071   1.93404
   A98        1.92384  -0.00300   0.00000  -0.00242  -0.00240   1.92144
   A99        1.92479  -0.00221   0.00000  -0.00125  -0.00127   1.92352
   A100       1.92496   0.00264   0.00000   0.00110   0.00114   1.92610
   A101       1.74522  -0.00697   0.00000  -0.00483  -0.00484   1.74039
   A102       1.97574  -0.00833   0.00000  -0.00476  -0.00481   1.97093
   A103       1.93423  -0.00122   0.00000  -0.00071  -0.00073   1.93350
   A104       1.93374   0.00304   0.00000   0.00147   0.00150   1.93524
   A105       1.93436   0.01747   0.00000   0.01163   0.01166   1.94602
   A106       1.93520  -0.00344   0.00000  -0.00262  -0.00261   1.93259
   A107       1.73681  -0.00695   0.00000  -0.00476  -0.00476   1.73206
   A108       1.72707   0.02138   0.00000   0.01157   0.01169   1.73876
    D1        0.82554   0.01187   0.00000   0.00946   0.00934   0.83488
    D2        3.01173  -0.00406   0.00000  -0.00315  -0.00323   3.00850
    D3       -1.36083   0.00024   0.00000  -0.00095  -0.00101  -1.36184
    D4        2.99265   0.01631   0.00000   0.01825   0.01844   3.01110
    D5       -1.10434   0.00039   0.00000   0.00563   0.00587  -1.09847
    D6        0.80629   0.00468   0.00000   0.00783   0.00810   0.81438
    D7       -0.87313  -0.00358   0.00000  -0.00633  -0.00649  -0.87962
    D8        1.31343   0.00369   0.00000  -0.00144  -0.00158   1.31185
    D9       -3.05827   0.03595   0.00000   0.02088   0.02072  -3.03754
   D10       -3.07857  -0.11441   0.00000  -0.08030  -0.08028   3.12433
   D11       -0.89201  -0.10714   0.00000  -0.07541  -0.07538  -0.96739
   D12        1.01948  -0.07488   0.00000  -0.05310  -0.05308   0.96640
   D13        1.16501   0.06087   0.00000   0.04514   0.04565   1.21067
   D14       -2.93247   0.00214   0.00000   0.00057   0.00084  -2.93162
   D15       -1.02119  -0.01901   0.00000  -0.01334  -0.01314  -1.03433
   D16       -2.87041   0.07663   0.00000   0.05888   0.05874  -2.81168
   D17       -0.68471   0.01790   0.00000   0.01431   0.01393  -0.67078
   D18        1.22657  -0.00325   0.00000   0.00040  -0.00006   1.22652
   D19       -0.88787  -0.02017   0.00000  -0.01090  -0.01050  -0.89837
   D20        1.29830  -0.02839   0.00000  -0.01942  -0.01929   1.27901
   D21       -3.07451  -0.03264   0.00000  -0.02286  -0.02288  -3.09739
   D22       -3.07381   0.00147   0.00000   0.00338   0.00367  -3.07014
   D23       -0.88763  -0.00675   0.00000  -0.00514  -0.00512  -0.89275
   D24        1.02274  -0.01100   0.00000  -0.00858  -0.00871   1.01403
   D25        1.29858   0.00429   0.00000   0.00591   0.00619   1.30477
   D26       -2.79843  -0.00392   0.00000  -0.00261  -0.00260  -2.80103
   D27       -0.88806  -0.00817   0.00000  -0.00605  -0.00620  -0.89425
   D28       -1.03154  -0.05719   0.00000  -0.04028  -0.04019  -1.07172
   D29        0.98924  -0.02503   0.00000  -0.01975  -0.01975   0.96949
   D30       -3.06121  -0.07865   0.00000  -0.05567  -0.05598  -3.11718
   D31        3.06550  -0.02828   0.00000  -0.02040  -0.02021   3.04530
   D32       -1.19690   0.00388   0.00000   0.00013   0.00023  -1.19667
   D33        1.03583  -0.04974   0.00000  -0.03579  -0.03600   0.99984
   D34        1.15543  -0.01753   0.00000  -0.01248  -0.01237   1.14305
   D35       -3.10698   0.01463   0.00000   0.00804   0.00806  -3.09892
   D36       -0.87424  -0.03899   0.00000  -0.02787  -0.02816  -0.90241
   D37        3.14141  -0.02043   0.00000  -0.00977  -0.00961   3.13180
   D38        1.11273   0.00163   0.00000   0.00266   0.00268   1.11542
   D39       -1.04341   0.08485   0.00000   0.05823   0.05805  -0.98536
   D40       -1.02019   0.03189   0.00000   0.02179   0.02192  -0.99827
   D41        1.16566   0.02867   0.00000   0.01856   0.01876   1.18441
   D42        3.07656   0.02315   0.00000   0.01482   0.01503   3.09159
   D43        1.01550   0.02282   0.00000   0.01842   0.01839   1.03390
   D44       -3.08183   0.01960   0.00000   0.01519   0.01523  -3.06661
   D45       -1.17093   0.01408   0.00000   0.01145   0.01150  -1.15943
   D46        3.06484  -0.02344   0.00000  -0.01246  -0.01303   3.05181
   D47       -1.03250  -0.02666   0.00000  -0.01569  -0.01619  -1.04870
   D48        0.87840  -0.03219   0.00000  -0.01944  -0.01992   0.85848
   D49        0.86709   0.02714   0.00000   0.01989   0.02049   0.88758
   D50       -2.25085   0.02277   0.00000   0.01649   0.01715  -2.23371
   D51       -1.19138   0.00263   0.00000   0.00152   0.00180  -1.18959
   D52        1.97385  -0.00174   0.00000  -0.00188  -0.00155   1.97231
   D53        3.02843   0.00545   0.00000   0.00576   0.00479   3.03322
   D54       -0.08952   0.00108   0.00000   0.00235   0.00145  -0.08807
   D55        0.96867   0.01145   0.00000   0.00815   0.00769   0.97636
   D56       -1.21813  -0.01786   0.00000  -0.01257  -0.01274  -1.23088
   D57       -3.12874  -0.00488   0.00000  -0.00422  -0.00446  -3.13320
   D58       -1.21793   0.00522   0.00000   0.00438   0.00420  -1.21373
   D59        2.87846  -0.02409   0.00000  -0.01635  -0.01623   2.86223
   D60        0.96785  -0.01112   0.00000  -0.00800  -0.00794   0.95991
   D61       -3.12744   0.02042   0.00000   0.01480   0.01447  -3.11297
   D62        0.96894  -0.00889   0.00000  -0.00592  -0.00596   0.96298
   D63       -0.94166   0.00408   0.00000   0.00243   0.00233  -0.93934
   D64       -2.54401  -0.13258   0.00000  -0.09938  -0.09960  -2.64360
   D65       -0.35737  -0.05853   0.00000  -0.04595  -0.04630  -0.40367
   D66        1.55222  -0.06486   0.00000  -0.04988  -0.05011   1.50211
   D67        1.55409  -0.05993   0.00000  -0.04532  -0.04530   1.50879
   D68       -2.54246   0.01412   0.00000   0.00811   0.00799  -2.53446
   D69       -0.63287   0.00779   0.00000   0.00418   0.00419  -0.62869
   D70       -0.35836  -0.06097   0.00000  -0.04625  -0.04590  -0.40426
   D71        1.82828   0.01308   0.00000   0.00718   0.00739   1.83568
   D72       -2.54532   0.00676   0.00000   0.00325   0.00358  -2.54173
   D73       -2.54840   0.05372   0.00000   0.04121   0.04157  -2.50683
   D74       -0.36239   0.00689   0.00000   0.00704   0.00764  -0.35475
   D75        1.54878   0.03123   0.00000   0.02373   0.02448   1.57326
   D76        1.54881   0.00498   0.00000   0.00408   0.00348   1.55229
   D77       -2.54837  -0.04185   0.00000  -0.03008  -0.03045  -2.57882
   D78       -0.63720  -0.01751   0.00000  -0.01339  -0.01361  -0.65080
   D79       -0.36195   0.02320   0.00000   0.01628   0.01589  -0.34606
   D80        1.82406  -0.02362   0.00000  -0.01789  -0.01804   1.80602
   D81       -2.54795   0.00071   0.00000  -0.00120  -0.00120  -2.54915
   D82        1.14801  -0.05936   0.00000  -0.04431  -0.04396   1.10405
   D83       -0.99013  -0.02532   0.00000  -0.01976  -0.01918  -1.00931
   D84       -3.06993  -0.03231   0.00000  -0.02631  -0.02626  -3.09619
   D85       -1.03764  -0.01250   0.00000  -0.00997  -0.00991  -1.04755
   D86        3.10740   0.02154   0.00000   0.01458   0.01488   3.12228
   D87        1.02761   0.01455   0.00000   0.00804   0.00779   1.03539
   D88       -2.94962  -0.04471   0.00000  -0.03207  -0.03241  -2.98203
   D89        1.19543  -0.01068   0.00000  -0.00753  -0.00762   1.18780
   D90       -0.88437  -0.01767   0.00000  -0.01407  -0.01471  -0.89908
   D91        1.22263   0.00793   0.00000   0.00603   0.00573   1.22836
   D92       -1.86269   0.02048   0.00000   0.01563   0.01535  -1.84734
   D93       -2.95933   0.00095   0.00000  -0.00077  -0.00054  -2.95987
   D94        0.23854   0.01350   0.00000   0.00882   0.00908   0.24762
   D95       -0.81618  -0.01717   0.00000  -0.01155  -0.01152  -0.82769
   D96        2.38169  -0.00462   0.00000  -0.00196  -0.00189   2.37980
   D97       -2.36998  -0.05159   0.00000  -0.03571  -0.03570  -2.40568
   D98        1.78870   0.01700   0.00000   0.00812   0.00834   1.79704
   D99       -0.33711  -0.00132   0.00000  -0.00265  -0.00275  -0.33986
   D100       2.40044   0.05341   0.00000   0.03551   0.03517   2.43561
   D101      -1.80176   0.01101   0.00000   0.01094   0.01113  -1.79063
   D102       0.35098   0.00152   0.00000   0.00287   0.00297   0.35396
   D103      -3.03525   0.01935   0.00000   0.01446   0.01462  -3.02063
   D104       0.10557   0.01514   0.00000   0.01130   0.01142   0.11699
   D105       0.05163   0.00515   0.00000   0.00403   0.00401   0.05564
   D106      -3.09075   0.00095   0.00000   0.00088   0.00082  -3.08993
   D107       3.03123  -0.01653   0.00000  -0.01301  -0.01283   3.01839
   D108      -0.10990  -0.00855   0.00000  -0.00687  -0.00671  -0.11661
   D109      -0.05486  -0.00637   0.00000  -0.00477  -0.00480  -0.05967
   D110       3.08720   0.00161   0.00000   0.00138   0.00132   3.08851
   D111      -0.00989  -0.00015   0.00000  -0.00015  -0.00013  -0.01002
   D112       3.13122  -0.00354   0.00000  -0.00269  -0.00270   3.12852
   D113       3.13248   0.00402   0.00000   0.00298   0.00302   3.13550
   D114      -0.00960   0.00064   0.00000   0.00044   0.00046  -0.00914
   D115       3.08890  -0.00293   0.00000  -0.00222  -0.00223   3.08667
   D116      -0.02864  -0.00473   0.00000  -0.00358  -0.00360  -0.03224
   D117      -0.05221   0.00044   0.00000   0.00031   0.00032  -0.05189
   D118       3.11344  -0.00136   0.00000  -0.00105  -0.00105   3.11239
   D119       0.02505   0.00412   0.00000   0.00315   0.00314   0.02819
   D120      -3.11709  -0.00002   0.00000  -0.00007  -0.00005  -3.11714
   D121      -3.09251   0.00225   0.00000   0.00175   0.00173  -3.09078
   D122       0.04853  -0.00189   0.00000  -0.00147  -0.00146   0.04707
   D123       0.01737   0.00146   0.00000   0.00104   0.00108   0.01845
   D124      -3.12469  -0.00650   0.00000  -0.00509  -0.00503  -3.12972
   D125      -3.12367   0.00560   0.00000   0.00426   0.00427  -3.11940
   D126       0.01745  -0.00236   0.00000  -0.00186  -0.00183   0.01562
   D127      -3.06287   0.00002   0.00000  -0.00031  -0.00050  -3.06337
   D128       0.07793   0.00158   0.00000   0.00097   0.00081   0.07874
   D129       0.05596   0.00203   0.00000   0.00175   0.00175   0.05771
   D130      -3.08643   0.00359   0.00000   0.00303   0.00306  -3.08337
   D131       3.05785  -0.00265   0.00000  -0.00236  -0.00253   3.05532
   D132      -0.08296   0.00154   0.00000   0.00090   0.00079  -0.08217
   D133      -0.06033  -0.00931   0.00000  -0.00700  -0.00701  -0.06734
   D134       3.08205  -0.00512   0.00000  -0.00374  -0.00369   3.07836
   D135      -0.01475   0.00495   0.00000   0.00386   0.00378  -0.01096
   D136       3.12638  -0.00030   0.00000  -0.00009  -0.00011   3.12627
   D137       3.12763   0.00340   0.00000   0.00258   0.00249   3.13013
   D138      -0.01442  -0.00186   0.00000  -0.00137  -0.00141  -0.01583
   D139       3.07690  -0.00938   0.00000  -0.00681  -0.00678   3.07012
   D140      -0.02240  -0.00666   0.00000  -0.00513  -0.00512  -0.02752
   D141      -0.06423  -0.00413   0.00000  -0.00286  -0.00288  -0.06711
   D142       3.11966  -0.00140   0.00000  -0.00118  -0.00122   3.11844
   D143       0.01747   0.00094   0.00000   0.00060   0.00065   0.01812
   D144      -3.12493   0.00334   0.00000   0.00233   0.00234  -3.12259
   D145      -3.08100  -0.00052   0.00000  -0.00002  -0.00000  -3.08100
   D146       0.05979   0.00188   0.00000   0.00171   0.00169   0.06148
   D147       0.02466   0.00762   0.00000   0.00577   0.00577   0.03043
   D148      -3.11771   0.00344   0.00000   0.00252   0.00249  -3.11522
   D149      -3.11613   0.00523   0.00000   0.00405   0.00407  -3.11206
   D150       0.02468   0.00106   0.00000   0.00081   0.00079   0.02547
   D151       0.19685   0.00515   0.00000   0.00399   0.00409   0.20094
   D152       2.38318   0.01047   0.00000   0.00855   0.00860   2.39177
   D153      -1.99012   0.00891   0.00000   0.00712   0.00716  -1.98295
   D154       0.02004  -0.00120   0.00000  -0.00059  -0.00059   0.01945
   D155       2.20584   0.01471   0.00000   0.01069   0.01065   2.21648
   D156      -2.16648   0.00737   0.00000   0.00539   0.00537  -2.16111
   D157      -2.16552  -0.01596   0.00000  -0.01137  -0.01134  -2.17686
   D158       0.02028  -0.00005   0.00000  -0.00010  -0.00010   0.02018
   D159       1.93115  -0.00740   0.00000  -0.00539  -0.00538   1.92577
   D160       2.20642  -0.00791   0.00000  -0.00555  -0.00553   2.20089
   D161      -1.89096   0.00800   0.00000   0.00572   0.00571  -1.88525
   D162       0.01991   0.00065   0.00000   0.00043   0.00043   0.02034
[...]
    D7       -0.87033  -0.00365  -0.00057   0.00000  -0.00057  -0.87091
    D8        1.31603   0.00365  -0.00053   0.00000  -0.00053   1.31550
    D9       -3.05664   0.03584  -0.00031   0.00000  -0.00031  -3.05695
   D10       -3.07287  -0.11397  -0.00123   0.00000  -0.00123  -3.07410
   D11       -0.88651  -0.10667  -0.00118   0.00000  -0.00118  -0.88769
   D12        1.02401  -0.07448  -0.00096   0.00000  -0.00096   1.02305
   D13        1.15927   0.06222   0.00122   0.00000   0.00122   1.16049
   D14       -2.93348   0.00284   0.00022   0.00000   0.00022  -2.93326
   D15       -1.02195  -0.01807   0.00015   0.00000   0.00016  -1.02179
   D16       -2.87856   0.07788   0.00172   0.00000   0.00172  -2.87684
   D17       -0.68813   0.01850   0.00072   0.00000   0.00072  -0.68741
   D18        1.22340  -0.00241   0.00066   0.00000   0.00066   1.22406
   D19       -0.88942  -0.01964   0.00031   0.00000   0.00031  -0.88911
   D20        1.29858  -0.02799  -0.00007   0.00000  -0.00007   1.29851
   D21       -3.07373  -0.03217  -0.00017   0.00000  -0.00017  -3.07391
   D22       -3.07562   0.00159   0.00037   0.00000   0.00037  -3.07525
   D23       -0.88762  -0.00676  -0.00001   0.00000  -0.00001  -0.88762
   D24        1.02326  -0.01093  -0.00011   0.00000  -0.00011   1.02314
   D25        1.29655   0.00442   0.00042   0.00000   0.00042   1.29697
   D26       -2.79863  -0.00393   0.00004   0.00000   0.00004  -2.79859
   D27       -0.88776  -0.00811  -0.00006   0.00000  -0.00006  -0.88782
   D28       -1.02839  -0.05654  -0.00067   0.00000  -0.00067  -1.02907
   D29        0.99199  -0.02485  -0.00057   0.00000  -0.00057   0.99141
   D30       -3.05776  -0.07740  -0.00074   0.00000  -0.00074  -3.05851
   D31        3.06786  -0.02814  -0.00050   0.00000  -0.00050   3.06737
   D32       -1.19494   0.00354  -0.00040   0.00000  -0.00040  -1.19534
   D33        1.03849  -0.04900  -0.00057   0.00000  -0.00057   1.03793
   D34        1.15696  -0.01730  -0.00032   0.00000  -0.00032   1.15664
   D35       -3.10584   0.01438  -0.00022   0.00000  -0.00022  -3.10606
   D36       -0.87241  -0.03816  -0.00039   0.00000  -0.00039  -0.87280
   D37        3.13841  -0.02007   0.00060   0.00000   0.00060   3.13901
   D38        1.11094   0.00213   0.00037   0.00000   0.00037   1.11131
   D39       -1.04610   0.08375   0.00059   0.00000   0.00059  -1.04551
   D40       -1.02163   0.03152   0.00031   0.00000   0.00031  -1.02132
   D41        1.16479   0.02815   0.00019   0.00000   0.00019   1.16498
   D42        3.07590   0.02284   0.00015   0.00000   0.00015   3.07604
   D43        1.01257   0.02286   0.00061   0.00000   0.00061   1.01318
   D44       -3.08419   0.01949   0.00049   0.00000   0.00049  -3.08370
   D45       -1.17309   0.01417   0.00045   0.00000   0.00045  -1.17264
   D46        3.06255  -0.02300   0.00045   0.00000   0.00045   3.06300
   D47       -1.03422  -0.02637   0.00033   0.00000   0.00033  -1.03388
   D48        0.87689  -0.03168   0.00029   0.00000   0.00029   0.87718
   D49        0.86532   0.02722   0.00038   0.00000   0.00038   0.86570
   D50       -2.25225   0.02294   0.00030   0.00000   0.00030  -2.25195
   D51       -1.19214   0.00269   0.00016   0.00000   0.00016  -1.19198
   D52        1.97347  -0.00158   0.00008   0.00000   0.00008   1.97355
   D53        3.02674   0.00554   0.00035   0.00000   0.00035   3.02709
   D54       -0.09083   0.00126   0.00027   0.00000   0.00027  -0.09056
   D55        0.96777   0.01184   0.00019   0.00000   0.00019   0.96796
   D56       -1.21786  -0.01775  -0.00007   0.00000  -0.00007  -1.21792
   D57       -3.12838  -0.00467  -0.00007   0.00000  -0.00007  -3.12845
   D58       -1.21884   0.00551   0.00019   0.00000   0.00019  -1.21865
   D59        2.87872  -0.02408  -0.00007   0.00000  -0.00007   2.87865
   D60        0.96819  -0.01100  -0.00007   0.00000  -0.00007   0.96812
   D61       -3.12895   0.02069   0.00032   0.00000   0.00032  -3.12863
   D62        0.96861  -0.00890   0.00006   0.00000   0.00006   0.96867
   D63       -0.94191   0.00419   0.00006   0.00000   0.00006  -0.94186
   D64       -2.53361  -0.13157  -0.00219   0.00000  -0.00219  -2.53580
   D65       -0.35093  -0.05775  -0.00134   0.00000  -0.00134  -0.35227
   D66        1.55914  -0.06455  -0.00145   0.00000  -0.00145   1.55769
   D67        1.55970  -0.05904  -0.00117   0.00000  -0.00117   1.55853
   D68       -2.54081   0.01479  -0.00032   0.00000  -0.00032  -2.54113
   D69       -0.63074   0.00798  -0.00043   0.00000  -0.00043  -0.63116
   D70       -0.35255  -0.06035  -0.00121   0.00000  -0.00121  -0.35376
   D71        1.83012   0.01348  -0.00036   0.00000  -0.00036   1.82976
   D72       -2.54299   0.00667  -0.00047   0.00000  -0.00047  -2.54346
   D73       -2.55276   0.05432   0.00092   0.00000   0.00092  -2.55184
   D74       -0.36401   0.00715   0.00033   0.00000   0.00033  -0.36368
   D75        1.54610   0.03175   0.00056   0.00000   0.00056   1.54667
   D76        1.54841   0.00521   0.00008   0.00000   0.00008   1.54849
   D77       -2.54602  -0.04197  -0.00051   0.00000  -0.00051  -2.54653
   D78       -0.63591  -0.01737  -0.00027   0.00000  -0.00027  -0.63618
   D79       -0.36318   0.02386   0.00026   0.00000   0.00026  -0.36291
   D80        1.82558  -0.02331  -0.00032   0.00000  -0.00032   1.82525
   D81       -2.54750   0.00129  -0.00009   0.00000  -0.00009  -2.54759
   D82        1.15258  -0.05882  -0.00096   0.00000  -0.00096   1.15162
   D83       -0.98687  -0.02469  -0.00067   0.00000  -0.00067  -0.98755
   D84       -3.06610  -0.03188  -0.00080   0.00000  -0.00080  -3.06689
   D85       -1.03566  -0.01217  -0.00041   0.00000  -0.00041  -1.03607
   D86        3.10807   0.02196  -0.00012   0.00000  -0.00012   3.10795
   D87        1.02884   0.01477  -0.00024   0.00000  -0.00024   1.02860
   D88       -2.94642  -0.04464  -0.00068   0.00000  -0.00068  -2.94710
   D89        1.19731  -0.01052  -0.00039   0.00000  -0.00039   1.19692
   D90       -0.88191  -0.01771  -0.00051   0.00000  -0.00051  -0.88243
   D91        1.22157   0.00850   0.00023   0.00000   0.00023   1.22180
   D92       -1.86502   0.02129   0.00050   0.00000   0.00050  -1.86452
   D93       -2.95925   0.00100  -0.00001   0.00000  -0.00001  -2.95926
   D94        0.23735   0.01379   0.00026   0.00000   0.00026   0.23761
   D95       -0.81607  -0.01685  -0.00003   0.00000  -0.00003  -0.81610
   D96        2.38053  -0.00406   0.00024   0.00000   0.00024   2.38077
   D97       -2.36741  -0.05239  -0.00056   0.00000  -0.00056  -2.36797
   D98        1.79067   0.01736  -0.00039   0.00000  -0.00039   1.79028
   D99       -0.33534  -0.00133  -0.00036   0.00000  -0.00036  -0.33570
   D100       2.39863   0.05377   0.00040   0.00000   0.00040   2.39903
   D101      -1.80441   0.01032   0.00055   0.00000   0.00055  -1.80387
   D102       0.34913   0.00153   0.00038   0.00000   0.00038   0.34951
   D103      -3.03696   0.01947   0.00036   0.00000   0.00036  -3.03660
   D104       0.10403   0.01530   0.00033   0.00000   0.00033   0.10435
   D105       0.05112   0.00511   0.00011   0.00000   0.00011   0.05123
   D106      -3.09107   0.00094   0.00007   0.00000   0.00007  -3.09100
   D107       3.03325  -0.01696  -0.00042   0.00000  -0.00042   3.03282
   D108      -0.10889  -0.00873  -0.00021   0.00000  -0.00021  -0.10910
   D109      -0.05413  -0.00648  -0.00016   0.00000  -0.00016  -0.05429
   D110       3.08692   0.00175   0.00006   0.00000   0.00006   3.08698
   D111      -0.00998  -0.00005   0.00002   0.00000   0.00002  -0.00996
   D112       3.13146  -0.00351  -0.00005   0.00000  -0.00005   3.13141
   D113       3.13221   0.00409   0.00006   0.00000   0.00006   3.13226
   D114      -0.00954   0.00063  -0.00001   0.00000  -0.00001  -0.00955
   D115       3.08925  -0.00304  -0.00007   0.00000  -0.00007   3.08917
   D116      -0.02818  -0.00472  -0.00010   0.00000  -0.00010  -0.02828
   D117      -0.05219   0.00041  -0.00000   0.00000  -0.00000  -0.05220
   D118       3.11356  -0.00127  -0.00003   0.00000  -0.00003   3.11353
   D119       0.02483   0.00393   0.00004   0.00000   0.00004   0.02488
   D120      -3.11693  -0.00017  -0.00004   0.00000  -0.00004  -3.11696
   D121      -3.09263   0.00218   0.00002   0.00000   0.00002  -3.09260
   D122       0.04879  -0.00192  -0.00006   0.00000  -0.00006   0.04874
   D123       0.01698   0.00171   0.00008   0.00000   0.00008   0.01707
   D124      -3.12406  -0.00650  -0.00013   0.00000  -0.00013  -3.12420
   D125      -3.12444   0.00580   0.00016   0.00000   0.00016  -3.12428
   D126       0.01770  -0.00240  -0.00005   0.00000  -0.00005   0.01765
   D127      -3.06273   0.00011  -0.00003   0.00000  -0.00003  -3.06276
   D128       0.07786   0.00166   0.00002   0.00000   0.00002   0.07787
   D129       0.05569   0.00205   0.00006   0.00000   0.00006   0.05575
   D130      -3.08691   0.00360   0.00010   0.00000   0.00010  -3.08681
   D131       3.05840  -0.00274  -0.00012   0.00000  -0.00012   3.05828
   D132      -0.08295   0.00150  -0.00000   0.00000  -0.00000  -0.08295
   D133      -0.05946  -0.00931  -0.00018   0.00000  -0.00018  -0.05964
   D134       3.08238  -0.00507  -0.00007   0.00000  -0.00007   3.08231
   D135      -0.01533   0.00504   0.00012   0.00000   0.00012  -0.01520
   D136       3.12638  -0.00035  -0.00000   0.00000  -0.00000   3.12638
   D137       3.12726   0.00349   0.00008   0.00000   0.00008   3.12734
   D138      -0.01421  -0.00189  -0.00004   0.00000  -0.00004  -0.01426
   D139       3.07783  -0.00963  -0.00020   0.00000  -0.00020   3.07763
   D140      -0.02164  -0.00681  -0.00016   0.00000  -0.00016  -0.02180
   D141      -0.06388  -0.00424  -0.00008   0.00000  -0.00008  -0.06395
   D142       3.11984  -0.00143  -0.00004   0.00000  -0.00004   3.11980
   D143       0.01735   0.00108   0.00003   0.00000   0.00003   0.01738
   D144      -3.12517   0.00341   0.00005   0.00000   0.00005  -3.12512
   D145      -3.08135  -0.00026   0.00007   0.00000   0.00007  -3.08127
   D146       0.05932   0.00208   0.00010   0.00000   0.00010   0.05942
   D147       0.02396   0.00755   0.00015   0.00000   0.00015   0.02411
   D148      -3.11787   0.00332   0.00003   0.00000   0.00003  -3.11784
   D149      -3.11671   0.00523   0.00012   0.00000   0.00012  -3.11658
   D150       0.02464   0.00100   0.00001   0.00000   0.00001   0.02465
   D151       0.19591   0.00512   0.00019   0.00000   0.00019   0.19611
   D152       2.38159   0.01048   0.00033   0.00000   0.00033   2.38192
   D153      -1.99153   0.00894   0.00029   0.00000   0.00029  -1.99124
   D154       0.01991  -0.00114   0.00003   0.00000   0.00003   0.01994
   D155       2.20509   0.01472   0.00016   0.00000   0.00016   2.20525
   D156      -2.16694   0.00740   0.00010   0.00000   0.00010  -2.16684
   D157      -2.16488  -0.01591  -0.00014   0.00000  -0.00014  -2.16502
   D158       0.02030  -0.00004  -0.00001   0.00000  -0.00001   0.02030
   D159       1.93145  -0.00737  -0.00007   0.00000  -0.00007   1.93139
   D160       2.20675  -0.00791  -0.00007   0.00000  -0.00007   2.20668
   D161      -1.89126   0.00795   0.00006   0.00000   0.00006  -1.89119
   D162       0.01989   0.00063   0.00000   0.00000   0.00000   0.01990
   D163      -0.22443  -0.00379  -0.00023   0.00000  -0.00023  -0.22466
   D164      -2.40966  -0.00960  -0.00033   0.00000  -0.00033  -2.40999
   D165       1.96164  -0.00887  -0.00030   0.00000  -0.00030   1.96134
         Item               Value     Threshold  Converged?
 Maximum Force            0.166018     0.000450     NO 
 RMS     Force            0.034703     0.000300     NO 
 Maximum Displacement     0.015736     0.001800     NO 
 RMS     Displacement     0.003876     0.001200     NO 
 Predicted change in Energy=-1.334016D-03
 GradGradGradGradGradGradGradGradGradGradGradGradGradGradGradGradGradGrad

 Symmetry turned off by external request.
 Stoichiometry    C23H27ClFNOS2
 Framework group  C1[X(C23H27ClFNOS2)]
 Deg. of freedom   162
 Full point group                 C1      NOp   1
                          Input orientation:                          
 ---------------------------------------------------------------------
 Center     Atomic      Atomic             Coordinates (Angstroms)
 Number     Number       Type             X           Y           Z
 ---------------------------------------------------------------------
      1          7           0       63.250368   38.751855   -0.212253
      2          6           0       63.002816   39.883551   -1.127406
      3          6           0       62.665888   39.412372   -2.548084
      4          6           0       63.691709   38.400484   -3.094328
      5          8           0       64.976030   39.017011   -3.095033
      6          6           0       63.755420   37.218390   -2.113506
      7          6           0       64.152204   37.696255   -0.713126
      8          6           0       63.774883   39.202725    1.093524
      9          6           0       62.754460   40.019667    1.894834
     10          6           0       63.517250   41.100528    2.677521
     11          6           0       62.873787   41.412856    4.043823
     12          6           0       62.966709   40.279494    4.909429
     13          6           0       64.215021   39.887357    5.423784
     14          6           0       64.354923   38.713743    6.169774
     15          6           0       63.238639   37.916570    6.423607
     16          9           0       63.371410   36.737769    7.097869
     17          6           0       61.985674   38.322909    5.954879
     18          6           0       61.841788   39.499297    5.211763
     19          6           0       63.427411   38.052661   -4.457087
     20          6           0       63.212145   39.071889   -5.406253
     21          6           0       62.859732   38.774289   -6.724319
     22          6           0       62.732466   37.444953   -7.126764
     23         17           0       62.196935   37.090481   -8.753413
     24          6           0       62.986702   36.414968   -6.205456
     25          6           0       63.346260   36.715021   -4.882015
     26         16           0       61.144147   41.903126    3.757821
     27          6           0       61.095669   43.333983    4.879163
     28          6           0       62.461270   43.783016    5.409038
     29         16           0       63.831208   42.798902    4.767762
     30          1           0       62.212777   40.560973   -0.727196
     31          1           0       63.859896   40.595217   -1.131141
     32          1           0       61.630035   39.002333   -2.599033
     33          1           0       62.550720   40.277634   -3.240821
     34          1           0       65.609554   38.392604   -3.429687
     35          1           0       62.800636   36.642009   -2.098018
     36          1           0       64.432088   36.411913   -2.481023
     37          1           0       65.215750   38.027142   -0.684804
     38          1           0       64.214105   36.843150    0.002213
     39          1           0       64.156412   38.341719    1.690030
     40          1           0       64.724784   39.770652    0.964565
     41          1           0       61.945700   40.443402    1.253416
     42          1           0       62.110304   39.384629    2.548565
     43          1           0       64.591331   40.827263    2.793441
     44          1           0       63.631368   42.027163    2.069218
     45          1           0       65.103551   40.513057    5.237829
     46          1           0       65.343255   38.416966    6.557107
     47          1           0       61.097178   37.706667    6.174012
     48          1           0       60.841504   39.811545    4.864699
     49          1           0       63.321335   40.128078   -5.109823
     50          1           0       62.682231   39.588016   -7.446166
     51          1           0       62.902731   35.361966   -6.522699
     52          1           0       63.565451   35.897709   -4.173378
     53          1           0       60.571129   44.187664    4.390777
     54          1           0       60.397564   43.136741    5.726397
     55          1           0       62.625954   44.867827    5.211012
     56          1           0       62.468734   43.795835    6.523960
 ---------------------------------------------------------------------
 Rotational constants (GHZ):           0.2895200           0.0403349           0.0374715
 SvSCFP did not find density file   528.
 ONIOM: saving gridpoint 17
 ONIOM: restoring gridpoint  3
 ONIOM: restoring gridpoint  3 on chk file.
 ONIOM: generating point  3 -- low level on real system.
 Standard basis: STO-3G (5D, 7F)
   184 basis functions,   552 primitive gaussians,   184 cartesian basis functions
   119 alpha electrons      119 beta electrons
       nuclear repulsion energy      3110.2153694996 Hartrees.
 NAtoms=   56 NActive=   56 NUniq=   56 SFac= 1.00D+00 NAtFMM=   60 NAOKFM=F Big=F
 Integral buffers will be    131072 words long.
 Raffenetti 1 integral format.
 Two-electron integral symmetry is turned off.
 External calculation of energy and first derivatives.
 Running external command "GauAPIs -m gfn2-xtb -n 4 R"
         input file       "/tmp/Gau-19461.EIn"
         output file      "/tmp/Gau-19461.EOu"
         message file     "/tmp/Gau-19461.EMs"
         fchk file        "/tmp/Gau-19461.EFC"
         mat. el file     "/tmp/Gau-19461.EUF"
Using xtb-python
This xtb task will use 4 cores 
------------------------------------------------------------
  cycle        total energy    energy error   density error
------------------------------------------------------------
      1     -85.58617814295  -8.6585165E+01   1.4453496E-01
      2     -85.71594185402  -1.2976371E-01   7.7401680E-02
      3     -85.70937281583   6.5690382E-03   3.2159258E-02
      4     -85.73791994680  -2.8547131E-02   1.0831534E-02
      5     -85.73940979529  -1.4898485E-03   4.2293409E-03
      6     -85.73969211850  -2.8232320E-04   1.9973485E-03
      7     -85.73981292971  -1.2081121E-04   9.5085455E-04
      8     -85.73982593275  -1.3003041E-05   5.5409120E-04
      9     -85.73982980534  -3.8725892E-06   3.7799952E-04
     10     -85.73983245152  -2.6461783E-06   2.3100194E-04
     11     -85.73983362428  -1.1727685E-06   1.5736267E-04
     12     -85.73983429091  -6.6663064E-07   6.6338170E-05
     13     -85.73983437680  -8.5882547E-08   3.0108035E-05
     14     -85.73983439093  -1.4131359E-08   1.5203862E-05
------------------------------------------------------------

 total:                                   0.239 sec
xtb calculation finished
 Recovered energy= -85.7398343909     dipole=      0.000000000000      0.000000000000      0.000000000000
 Energy=    -85.7398344     NIter=   0.
 Dipole moment=       0.000000       0.000000       0.000000
 Cartesian Forces:  Max     0.059214712 RMS     0.010462039
 SvSCFP did not find density file   528.
 ONIOM: saving gridpoint  3
 ONIOM: restoring gridpoint  2
 ONIOM: restoring gridpoint  2 on chk file.
 ONIOM: generating point  2 -- high level on model system.
 Standard basis: STO-3G (5D, 7F)
   101 basis functions,   303 primitive gaussians,   101 cartesian basis functions
    60 alpha electrons       60 beta electrons
       nuclear repulsion energy      1119.5154788029 Hartrees.
 NAtoms=   56 NActive=   37 NUniq=   37 SFac= 1.00D+00 NAtFMM=   60 NAOKFM=F Big=F
 Integral buffers will be    131072 words long.
 Raffenetti 1 integral format.
 Two-electron integral symmetry is turned off.
 External calculation of energy and first derivatives.
 Running external command "GauAPIs -m AIQM1 M"
         input file       "/tmp/Gau-19461.EIn"
         output file      "/tmp/Gau-19461.EOu"
         message file     "/tmp/Gau-19461.EMs"
         fchk file        "/tmp/Gau-19461.EFC"
         mat. el file     "/tmp/Gau-19461.EUF"
